Automatically generated mesh
      16
Reciprocal lattice
    0.25000000000000    0.25000000000000    0.25000000000000            24
    0.25000000000000    0.00000000000000    0.00000000000000            24
    0.00000000000000   -0.00000000000000   -0.25000000000000            24
    0.00000000000000    0.25000000000000    0.00000000000000            24
   -0.25000000000000    0.25000000000000    0.25000000000000            24
    0.25000000000000   -0.25000000000000    0.25000000000000            24
    0.25000000000000    0.25000000000000   -0.25000000000000            24
    0.25000000000000    0.00000000000000    0.50000000000000            24
   -0.25000000000000    0.50000000000000    0.50000000000000            24
    0.25000000000000    0.50000000000000    0.00000000000000            24
    0.00000000000000    0.50000000000000   -0.25000000000000            24
    0.50000000000000   -0.00000000000000   -0.25000000000000            24
    0.50000000000000    0.50000000000000    0.25000000000000            24
    0.50000000000000   -0.25000000000000    0.50000000000000            24
    0.00000000000000    0.25000000000000    0.50000000000000            24
    0.50000000000000    0.25000000000000    0.00000000000000            24
Tetrahedra
        96    0.00260416666667
         4         2         2         5        16
         4         2         2        12        16
         4         2         2         5        12
         4         3         7        12        16
         4         3         7         8        12
         4         3         8        12        15
         4         2         3        12        16
         4         2         3         5        12
         4         3         5        12        15
         4         7         8         8        15
         4         3         8         8        15
         4         3         7         8         8
         4         1         5         9        13
         4         1         5        13        16
         4         1         2         5        16
         4         1         5         9        14
         4         1         5        12        14
         4         1         2         5        12
         4         4        10        13        16
         4         4         7        10        16
         4         3         4         7        16
         4         1         4        13        16
         4         1         2         4        16
         4         2         3         4        16
         4         6         7        10        11
         4         6         7        11        15
         4         6         7         8        15
         4         4         6         7        10
         4         3         4         6         7
         4         3         6         7         8
         4         9        11        14        15
         4         5         9        14        15
         4         5        12        14        15
         4         6        11        14        15
         4         6         8        14        15
         4         8        12        14        15
         4         1         9         9        14
         4         9         9        13        14
         4         1         9         9        13
         4         6        11        13        14
         4         6        10        11        13
         4         4        10        11        13
         4         9        11        13        14
         4         1         9        11        13
         4         1         4        11        13
         4         4         6        10        10
         4         4        10        10        11
         4         6        10        10        11
         4         2         4        12        16
         4         2         4         5        16
         4         4         5        11        16
         4         4         6        12        16
         4         4         6        10        16
         4         4        10        11        16
         4         1         2         3         5
         4         1         3         5        15
         4         1         5         9        15
         4         1         2         4         5
         4         1         4         5        11
         4         1         5         9        11
         4         3         8        14        15
         4         7         8        14        15
         4         7        13        14        15
         4         1         3        14        15
         4         1         9        14        15
         4         9        13        14        15
         4         6         7         8        12
         4         6         7        12        16
         4         6         7        10        16
         4         6         7         8        14
         4         6         7        13        14
         4         6         7        10        13
         4         1         3        12        14
         4         1         2         3        12
         4         2         3         4        12
         4         3         8        12        14
         4         3         6         8        12
         4         3         4         6        12
         4         1         2         2         4
         4         2         2         3         4
         4         1         2         2         3
         4         6         8         8        14
         4         8         8        12        14
         4         6         8         8        12
         4         5        11        13        16
         4         5         9        11        13
         4         9        11        13        15
         4        10        11        13        16
         4         7        10        11        13
         4         7        11        13        15
         4         5         9         9        15
         4         9         9        11        15
         4         5         9         9        11
         4         7        10        10        16
         4        10        10        13        16
         4         7        10        10        13
