 running on   96 total cores
 distrk:  each k-point on   96 cores,    1 groups
 distr:  one band on   24 cores,    4 groups
 using from now: INCAR     
 vasp.5.4.1 24Jun15 (build Nov 16 2016 17:59:42) complex                        
  
 POSCAR found type information on POSCAR  Cd F 
 POSCAR found :  2 types and       3 ions
 scaLAPACK will be used

 ----------------------------------------------------------------------------- 
|                                                                             |
|           W    W    AA    RRRRR   N    N  II  N    N   GGGG   !!!           |
|           W    W   A  A   R    R  NN   N  II  NN   N  G    G  !!!           |
|           W    W  A    A  R    R  N N  N  II  N N  N  G       !!!           |
|           W WW W  AAAAAA  RRRRR   N  N N  II  N  N N  G  GGG   !            |
|           WW  WW  A    A  R   R   N   NN  II  N   NN  G    G                |
|           W    W  A    A  R    R  N    N  II  N    N   GGGG   !!!           |
|                                                                             |
|      For optimal performance we recommend to set                            |
|        NCORE= 4 - approx SQRT( number of cores)                             |
|      NCORE specifies how many cores store one orbital (NPAR=cpu/NCORE).     |
|      This setting can  greatly improve the performance of VASP for DFT.     |
|      The default, NPAR=number of cores might be grossly inefficient         |
|      on modern multi-core architectures or massively parallel machines.     |
|      Do your own testing !!!!                                               |
|      Unfortunately you need to use the default for GW and RPA calculations. |
|      (for HF NCORE is supported but not extensively tested yet)             |
|                                                                             |
 ----------------------------------------------------------------------------- 


 ----------------------------------------------------------------------------- 
|                                                                             |
|  ADVICE TO THIS USER RUNNING 'VASP/VAMP'   (HEAR YOUR MASTER'S VOICE ...):  |
|                                                                             |
|      You have a (more or less) 'small supercell' and for smaller cells      |
|      it is recommended  to use the reciprocal-space projection scheme!      |
|      The real space optimization is not  efficient for small cells and it   |
|      is also less accurate ...                                              |
|      Therefore set LREAL=.FALSE. in the  INCAR file                         |
|                                                                             |
 ----------------------------------------------------------------------------- 

 LDA part: xc-table for Pade appr. of Perdew

 ----------------------------------------------------------------------------- 
|                                                                             |
|           W    W    AA    RRRRR   N    N  II  N    N   GGGG   !!!           |
|           W    W   A  A   R    R  NN   N  II  NN   N  G    G  !!!           |
|           W    W  A    A  R    R  N N  N  II  N N  N  G       !!!           |
|           W WW W  AAAAAA  RRRRR   N  N N  II  N  N N  G  GGG   !            |
|           WW  WW  A    A  R   R   N   NN  II  N   NN  G    G                |
|           W    W  A    A  R    R  N    N  II  N    N   GGGG   !!!           |
|                                                                             |
|      The number of bands has been changed from the values supplied          |
|      in the INCAR file. This is a result of running the parallel version.   |
|      The orbitals not found in the WAVECAR file will be initialized with    |
|      random numbers, which is usually adequate. For correlated              |
|      calculations, however, you should redo the groundstate calculation.    |
|      I found NBANDS    =       17  now  NBANDS  =      20                   |
|                                                                             |
 ----------------------------------------------------------------------------- 

 POSCAR, INCAR and KPOINTS ok, starting setup
 FFT: planning ...
 WAVECAR not read
 initial charge from wavefunction
 entering main loop
       N       E                     dE             d eps       ncg     rms          rms(c)
DAV:   1    -0.559098486554E+03   -0.55910E+03   -0.26755E+04356652   0.145E+03
DAV:   2    -0.766730760254E+03   -0.20763E+03   -0.20635E+03330372   0.479E+02
DAV:   3    -0.774841363087E+03   -0.81106E+01   -0.81008E+01388304   0.868E+01
DAV:   4    -0.774973819673E+03   -0.13246E+00   -0.13243E+00392924   0.115E+01
DAV:   5    -0.774975786377E+03   -0.19667E-02   -0.19666E-02374108   0.134E+00    0.234E+03
DAV:   6    -0.184086335481E+03    0.59089E+03   -0.37642E+02314484   0.183E+02    0.140E+03
DAV:   7    -0.106806800547E+03    0.77280E+02   -0.13243E+03296376   0.345E+02    0.140E+02
DAV:   8    -0.163203914814E+02    0.90486E+02   -0.50042E+02325476   0.168E+02    0.804E+01
DAV:   9    -0.173328805970E+02   -0.10125E+01   -0.56505E+01323612   0.649E+01    0.388E+01
DAV:  10    -0.124071378290E+02    0.49257E+01   -0.49067E+00313752   0.274E+01    0.190E+01
DAV:  11    -0.114286820111E+02    0.97846E+00   -0.15062E+00301748   0.148E+01    0.109E+01
DAV:  12    -0.110905648259E+02    0.33812E+00   -0.41162E-01306040   0.679E+00    0.722E+00
DAV:  13    -0.109009324584E+02    0.18963E+00   -0.79077E-01285444   0.121E+01    0.238E+00
DAV:  14    -0.109154204836E+02   -0.14488E-01   -0.18023E-01296760   0.451E+00    0.604E-01
DAV:  15    -0.109088869876E+02    0.65335E-02   -0.11881E-02289776   0.912E-01    0.632E-01
DAV:  16    -0.109078341137E+02    0.10529E-02   -0.36656E-03285740   0.677E-01    0.541E-02
DAV:  17    -0.109078810544E+02   -0.46941E-04   -0.53719E-04302124   0.298E-01    0.290E-02
DAV:  18    -0.109078834686E+02   -0.24142E-05   -0.10388E-05302628   0.340E-02    0.140E-02
DAV:  19    -0.109078838768E+02   -0.40823E-06   -0.28704E-06299900   0.150E-02    0.233E-02
DAV:  20    -0.109078837202E+02    0.15666E-06   -0.24534E-07253404   0.514E-03    0.818E-03
DAV:  21    -0.109078837085E+02    0.11688E-07   -0.16385E-07239480   0.367E-03
   1 F= -.10907884E+02 E0= -.10907884E+02  d E =0.000000E+00  mag=    -0.0000
 writing wavefunctions
