{"material_id": "id", "task_label": "static", "schema": {"code": "atomate", "version": "0.9.4"}, "dir_name": "PC-1R0-150.OASIS.UCLOUVAIN.BE:/mnt/c/Users/jageorge/Projects/LobsterinAtomate/atomate/atomate/utils/scratch/launcher_2020-04-07-12-17-46-030203", "calcs_reversed": [{"vasp_version": "5.4.1", "has_vasp_completed": true, "nsites": 3, "elements": ["Cd", "F"], "nelements": 2, "run_type": "GGA", "input": {"incar": {"PREC": "accurate", "ALGO": "Normal", "ISPIN": 2, "ICHARG": 0, "NELM": 100, "IBRION": -1, "EDIFF": 1e-07, "NSW": 0, "ISIF": 3, "ISYM": 0, "ENCUT": 520.0, "NBANDS": 17, "MAGMOM": [0.0, 0.0, 0.0], "LREAL": "Auto", "ISMEAR": -5, "SIGMA": 0.05, "LWAVE": true, "LORBIT": false, "KPOINT_BSE": [-1, 0, 0, 0]}, "kpoints": {"comment": "Kpoints from vasprun.xml", "nkpoints": 0, "generation_style": "Monkhorst", "kpoints": [[2, 2, 2]], "usershift": [0.0, 0.0, 0.0], "kpts_weights": null, "coord_type": null, "labels": null, "tet_number": 0, "tet_weight": 0, "tet_connections": null, "genvec1": [0.5, -0.0, 0.0], "genvec2": [0.0, 0.5, 0.0], "genvec3": [0.0, 0.0, 0.5], "shift": [0.5, 0.5, 0.5], "@module": "pymatgen.io.vasp.inputs", "@class": "Kpoints", "actual_points": [{"abc": [0.25, 0.25, 0.25], "weight": 0.0625}, {"abc": [0.25, 0.0, 0.0], "weight": 0.0625}, {"abc": [0.0, -0.0, -0.25], "weight": 0.0625}, {"abc": [0.0, 0.25, 0.0], "weight": 0.0625}, {"abc": [-0.25, 0.25, 0.25], "weight": 0.0625}, {"abc": [0.25, -0.25, 0.25], "weight": 0.0625}, {"abc": [0.25, 0.25, -0.25], "weight": 0.0625}, {"abc": [0.25, 0.0, 0.5], "weight": 0.0625}, {"abc": [-0.25, 0.5, 0.5], "weight": 0.0625}, {"abc": [0.25, 0.5, 0.0], "weight": 0.0625}, {"abc": [0.0, 0.5, -0.25], "weight": 0.0625}, {"abc": [0.5, -0.0, -0.25], "weight": 0.0625}, {"abc": [0.5, 0.5, 0.25], "weight": 0.0625}, {"abc": [0.5, -0.25, 0.5], "weight": 0.0625}, {"abc": [0.0, 0.25, 0.5], "weight": 0.0625}, {"abc": [0.5, 0.25, 0.0], "weight": 0.0625}]}, "nkpoints": 16, "potcar": ["Cd", "F"], "potcar_spec": [{"titel": "PAW_PBE Cd 06Sep2000", "hash": "26e4263534cfc3846d68ba6afd65d05f"}, {"titel": "PAW_PBE F 08Apr2002", "hash": "5c4eeeaf2c4337bde6e8725019a3450e"}], "potcar_type": ["PAW_PBE", "PAW_PBE"], "parameters": {"SYSTEM": "unknown system", "LCOMPAT": false, "PREC": "accura", "ENMAX": 520.0, "ENAUG": 613.614, "EDIFF": 1e-07, "IALGO": 38, "IWAVPR": 10, "NBANDS": 18, "NELECT": 26.0, "TURBO": 0, "IRESTART": 0, "NREBOOT": 0, "NMIN": 0, "EREF": 0.0, "ISMEAR": -5, "SIGMA": 0.05, "KSPACING": 0.5, "KGAMMA": true, "LREAL": true, "ROPT": [-0.00025, -0.00025], "LMAXPAW": -100, "LMAXMIX": 2, "NLSPLINE": false, "ISTART": 0, "ICHARG": 0, "INIWAV": 1, "ISPIN": 2, "LNONCOLLINEAR": false, "MAGMOM": [0.0, 0.0, 0.0], "NUPDOWN": -1.0, "LSORBIT": false, "SAXIS": [0.0, 0.0, 1.0], "LSPIRAL": false, "QSPIRAL": [0.0, 0.0, 0.0], "LZEROZ": false, "LASPH": false, "LMETAGGA": false, "NELM": 100, "NELMDL": -5, "NELMIN": 2, "ENINI": 520.0, "LDIAG": true, "LSUBROT": false, "WEIMIN": 0.0, "EBREAK": 0.0, "DEPER": 0.3, "NRMM": 4, "TIME": 0.4, "AMIX": 0.4, "BMIX": 1.0, "AMIN": 0.1, "AMIX_MAG": 1.6, "BMIX_MAG": 1.0, "IMIX": 4, "MIXFIRST": false, "MAXMIX": -45, "WC": 100.0, "INIMIX": 1, "MIXPRE": 1, "MREMOVE": 5, "LDIPOL": false, "LMONO": false, "IDIPOL": 0, "EPSILON": 1.0, "DIPOL": [-100.0, -100.0, -100.0], "EFIELD": 0.0, "NGX": 30, "NGY": 30, "NGZ": 30, "NGXF": 60, "NGYF": 60, "NGZF": 60, "ADDGRID": false, "NSW": 0, "IBRION": -1, "ISIF": 3, "PSTRESS": 0.0, "EDIFFG": 1e-06, "NFREE": 0, "POTIM": 0.5, "SMASS": -3.0, "SCALEE": 1.0, "TEBEG": 0.0001, "TEEND": 0.0001, "NBLOCK": 1, "KBLOCK": 1, "NPACO": 256, "APACO": 16.0, "ISYM": 0, "SYMPREC": 1e-05, "LORBIT": false, "RWIGS": [-1.0, -1.0], "NEDOS": 301, "EMIN": 10.0, "EMAX": -10.0, "EFERMI": 0.0, "NWRITE": 2, "LWAVE": true, "LCHARG": true, "LPARD": false, "LVTOT": false, "LVHAR": false, "LELF": false, "LOPTICS": false, "STM": [0.0, 0.0, 0.0, 0.0, 0.0, 0.0, 0.0], "NPAR": 3, "NSIM": 4, "NBLK": -1, "LPLANE": true, "LSCALAPACK": true, "LSCAAWARE": false, "LSCALU": false, "LASYNC": false, "LORBITALREAL": false, "IDIOT": 3, "LMUSIC": false, "POMASS": [112.411, 18.998], "DARWINR": [0.0, 0.0], "DARWINV": [1.0, 1.0], "LCORR": true, "GGA_COMPAT": true, "LBERRY": false, "ICORELEVEL": 0, "LDAU": false, "I_CONSTRAINED_M": 0, "GGA": "--", "VOSKOWN": 0, "LHFCALC": false, "PRECFOCK": "", "LSYMGRAD": false, "LHFONE": false, "LRHFCALC": false, "LTHOMAS": false, "LMODELHF": false, "ENCUT4O": -1.0, "EXXOEP": 0, "FOURORBIT": 0, "AEXX": 0.0, "HFALPHA": 0.0, "MCALPHA": 0.0, "ALDAX": 1.0, "AGGAX": 1.0, "ALDAC": 1.0, "AGGAC": 1.0, "NKREDX": 1, "NKREDY": 1, "NKREDZ": 1, "SHIFTRED": false, "ODDONLY": false, "EVENONLY": false, "LMAXFOCK": 0, "NMAXFOCKAE": 0, "LFOCKAEDFT": false, "HFSCREEN": 0.0, "HFSCREENC": 0.0, "NBANDSGWLOW": 0, "LUSE_VDW": false, "Zab_VDW": -0.8491, "PARAM1": 0.1234, "PARAM2": 1.0, "PARAM3": 0.0, "MODEL_GW": 0, "MODEL_EPS0": 8.28503491, "MODEL_ALPHA": 1.0, "LEPSILON": false, "LRPA": false, "LNABLA": false, "LVEL": false, "KINTER": 0, "CSHIFT": 0.1, "OMEGAMAX": -1.0, "DEG_THRESHOLD": 0.002, "NUCIND": false, "MAGPOS": [0.0, 0.0, 0.0], "LNICSALL": true, "ORBITALMAG": false, "LMAGBLOCH": false, "LCHIMAG": false, "LGAUGE": true, "MAGATOM": 0, "MAGDIPOL": [0.0, 0.0, 0.0], "AVECCONST": [0.0, 0.0, 0.0], "LADDER": false, "LFXC": false, "LHARTREE": true, "IBSE": 0, "KPOINT": [-1, 0, 0, 0], "LTCTE": false, "LTETE": false, "LTRIPLET": false, "LFXCEPS": false, "LFXHEG": false, "NATURALO": 0, "L2ORDER": false, "LUSEW": false, "ENCUTGW": -2.0, "ENCUTGWSOFT": -2.0, "ENCUTLF": -1.0, "LMAXMP2": -1, "SCISSOR": 0.0, "NOMEGA": 0, "NOMEGAR": 0, "NBANDSGW": -1, "NBANDSO": -1, "NBANDSV": -1, "NELMHF": 1, "DIM": 3, "ANTIRES": 0, "OMEGAMIN": -30.0, "OMEGATL": -200.0, "OMEGAGRID": 0, "SELFENERGY": false, "LSPECTRAL": false, "LSPECTRALGW": false, "LSINGLES": false, "LFERMIGW": false, "ODDONLYGW": false, "EVENONLYGW": false, "NKREDLFX": 1, "NKREDLFY": 1, "NKREDLFZ": 1, "MAXMEM": 1800, "TELESCOPE": 0, "TAUPAR": 1, "OMEGAPAR": -1, "LAMBDA": 1.0, "OFIELD_KAPPA": 0.0, "OFIELD_K": [0.0, 0.0, 0.0], "OFIELD_Q6_NEAR": 0.0, "OFIELD_Q6_FAR": 0.0, "OFIELD_A": 0.0}, "lattice_rec": {"@module": "pymatgen.core.lattice", "@class": "Lattice", "matrix": [[1.8680541851086867, -0.6604568219960625, 0.0], [0.0, 1.9813704659881872, 0.0], [-0.9340270925543431, -0.6604568219960623, 1.617782389628059]]}, "structure": {"@module": "pymatgen.core.structure", "@class": "Structure", "charge": null, "lattice": {"matrix": [[3.363492, 0.0, 1.941913], [1.121164, 3.171131, 1.941913], [0.0, 0.0, 3.883826]], "a": 3.883826017425729, "b": 3.8838262877767846, "c": 3.883826, "alpha": 60.000002451082665, "beta": 60.00000014842026, "gamma": 60.00000240160925, "volume": 41.425174546039166}, "sites": [{"species": [{"element": "Cd", "occu": 1}], "abc": [0.0, 0.0, 0.0], "xyz": [0.0, 0.0, 0.0], "label": "Cd", "properties": {}}, {"species": [{"element": "F", "occu": 1}], "abc": [0.75, 0.75, 0.75], "xyz": [3.363492, 2.37834825, 5.8257390000000004], "label": "F", "properties": {}}, {"species": [{"element": "F", "occu": 1}], "abc": [0.25, 0.25, 0.25], "xyz": [1.121164, 0.79278275, 1.941913], "label": "F", "properties": {}}]}}, "output": {"ionic_steps": [{"e_fr_energy": -10.92028475, "e_wo_entrp": -10.92028475, "e_0_energy": 0.0, "forces": [[2.02e-06, -9.7e-07, -4.17e-06], [1.65e-06, 6e-07, 6.28e-06], [-3.67e-06, 3.7e-07, -2.11e-06]], "stress": [[-1.54697725, 0.00085902, 0.00195218], [0.00085947, -1.54716892, 0.0013504], [0.00195205, 0.00135076, -1.54483264]], "electronic_steps": [{"alphaZ": 147.93194166, "ewald": -1947.62834194, "hartreedc": -49.25099381, "XCdc": 49.01964678, "pawpsdc": NaN, "pawaedc": NaN, "eentropy": 0.0, "bandstr": -1432.36636191, "atom": 2612.40559352, "e_fr_energy": -591.72712602, "e_wo_entrp": -591.72712602, "e_0_energy": -591.72712602}, {"e_fr_energy": -773.40713086, "e_wo_entrp": -773.40713086, "e_0_energy": -773.40713086}, {"e_fr_energy": -779.3840754, "e_wo_entrp": -779.3840754, "e_0_energy": -779.3840754}, {"e_fr_energy": -779.48569331, "e_wo_entrp": -779.48569331, "e_0_energy": -779.48569331}, {"e_fr_energy": -779.48778892, "e_wo_entrp": -779.48778892, "e_0_energy": -779.48778892}, {"e_fr_energy": -186.81827492, "e_wo_entrp": -186.81827492, "e_0_energy": -186.81827492}, {"e_fr_energy": -102.01481878, "e_wo_entrp": -102.01481878, "e_0_energy": -102.01481878}, {"e_fr_energy": -14.99619667, "e_wo_entrp": -14.99619667, "e_0_energy": -14.99619667}, {"e_fr_energy": -15.51273877, "e_wo_entrp": -15.51273877, "e_0_energy": -15.51273877}, {"e_fr_energy": -12.88955384, "e_wo_entrp": -12.88955384, "e_0_energy": -12.88955384}, {"e_fr_energy": -11.04982084, "e_wo_entrp": -11.04982084, "e_0_energy": -11.04982084}, {"e_fr_energy": -10.90167034, "e_wo_entrp": -10.90167034, "e_0_energy": -10.90167034}, {"e_fr_energy": -10.92384399, "e_wo_entrp": -10.92384399, "e_0_energy": -10.92384399}, {"e_fr_energy": -10.92157588, "e_wo_entrp": -10.92157588, "e_0_energy": -10.92157588}, {"e_fr_energy": -10.92097207, "e_wo_entrp": -10.92097207, "e_0_energy": -10.92097207}, {"e_fr_energy": -10.92024675, "e_wo_entrp": -10.92024675, "e_0_energy": -10.92024675}, {"e_fr_energy": -10.92028649, "e_wo_entrp": -10.92028649, "e_0_energy": -10.92028649}, {"e_fr_energy": -10.92028389, "e_wo_entrp": -10.92028389, "e_0_energy": -10.92028389}, {"e_fr_energy": -10.92028478, "e_wo_entrp": -10.92028478, "e_0_energy": -10.92028478}, {"alphaZ": 147.93194166, "ewald": -1947.62834194, "hartreedc": -742.90443942, "XCdc": 81.24555249, "pawpsdc": 2486.97547121, "pawaedc": -2460.06893326, "eentropy": 0.0, "bandstr": -188.87712901, "atom": 2612.40559352, "e_fr_energy": -10.92028475, "e_wo_entrp": -10.92028475, "e_0_energy": -10.92028475}], "structure": {"@module": "pymatgen.core.structure", "@class": "Structure", "charge": null, "lattice": {"matrix": [[3.363492, 0.0, 1.941913], [1.121164, 3.171131, 1.941913], [0.0, 0.0, 3.883826]], "a": 3.883826017425729, "b": 3.8838262877767846, "c": 3.883826, "alpha": 60.000002451082665, "beta": 60.00000014842026, "gamma": 60.00000240160925, "volume": 41.425174546039166}, "sites": [{"species": [{"element": "Cd", "occu": 1}], "abc": [0.0, 0.0, 0.0], "xyz": [0.0, 0.0, 0.0], "label": "Cd", "properties": {}}, {"species": [{"element": "F", "occu": 1}], "abc": [0.75, 0.75, 0.75], "xyz": [3.363492, 2.37834825, 5.8257390000000004], "label": "F", "properties": {}}, {"species": [{"element": "F", "occu": 1}], "abc": [0.25, 0.25, 0.25], "xyz": [1.121164, 0.79278275, 1.941913], "label": "F", "properties": {}}]}}], "efermi": -1.92444085, "bandgap": 4.9165, "cbm": 2.9356, "vbm": -1.9809, "is_gap_direct": false, "epsilon_static": [], "epsilon_static_wolfe": [], "epsilon_ionic": [], "structure": {"@module": "pymatgen.core.structure", "@class": "Structure", "charge": null, "lattice": {"matrix": [[3.363492, 0.0, 1.941913], [1.121164, 3.171131, 1.941913], [0.0, 0.0, 3.883826]], "a": 3.883826017425729, "b": 3.8838262877767846, "c": 3.883826, "alpha": 60.000002451082665, "beta": 60.00000014842026, "gamma": 60.00000240160925, "volume": 41.425174546039166}, "sites": [{"species": [{"element": "Cd", "occu": 1}], "abc": [0.0, 0.0, 0.0], "xyz": [0.0, 0.0, 0.0], "label": "Cd", "properties": {}}, {"species": [{"element": "F", "occu": 1}], "abc": [0.75, 0.75, 0.75], "xyz": [3.363492, 2.37834825, 5.8257390000000004], "label": "F", "properties": {}}, {"species": [{"element": "F", "occu": 1}], "abc": [0.25, 0.25, 0.25], "xyz": [1.121164, 0.79278275, 1.941913], "label": "F", "properties": {}}]}, "energy": -10.92028475, "energy_per_atom": -3.640094916666667, "is_metal": false, "direct_gap": 5.1492, "outcar": {"@module": "pymatgen.io.vasp.outputs", "@class": "Outcar", "efermi": -1.9244, "magnetization": [{"s": 0.0, "p": 0.0, "d": -0.0, "tot": 0.0}, {"s": 0.0, "p": -0.0, "d": 0.0, "tot": -0.0}, {"s": 0.0, "p": 0.0, "d": 0.0, "tot": 0.0}], "charge": [{"s": 0.223, "p": 0.175, "d": 9.677, "tot": 10.076}, {"s": 1.739, "p": 4.327, "d": 0.0, "tot": 6.067}, {"s": 1.739, "p": 4.327, "d": 0.0, "tot": 6.067}], "total_magnetization": 0.0, "nelect": 25.9999998, "is_stopped": false, "drift": [[3e-06, -2e-06, -6e-06]], "ngf": [60, 60, 60], "sampling_radii": [1.0698, 0.7167], "electrostatic_potential": [-39.555, -78.1826, -78.1826], "onsite_density_matrices": []}}, "formula_pretty": "CdF2", "composition_reduced": {"Cd": 1.0, "F": 2.0}, "composition_unit_cell": {"Cd": 1.0, "F": 2.0}, "formula_anonymous": "AB2", "formula_reduced_abc": "Cd1 F2", "dir_name": "/mnt/c/Users/jageorge/Projects/LobsterinAtomate/atomate/atomate/utils/scratch/launcher_2020-04-07-12-17-46-030203", "completed_at": "2020-04-07 14:17:46.505062", "task": {"type": "standard", "name": "standard"}, "output_file_paths": {"chgcar": "CHGCAR.gz", "wavecar": "WAVECAR.gz", "procar": "PROCAR.gz"}, "chgcar": null}], "run_stats": {"standard": {"Average memory used (kb)": 0.0, "Maximum memory used (kb)": 58984.0, "Elapsed time (sec)": 40.258, "System time (sec)": 0.733, "User time (sec)": 39.051, "Total CPU time used (sec)": 39.785, "cores": "3"}, "overall": {"Total CPU time used (sec)": 39.785, "User time (sec)": 39.051, "System time (sec)": 0.733, "Elapsed time (sec)": 40.258}}, "chemsys": "Cd-F", "formula_anonymous": "AB2", "formula_reduced_abc": "Cd1 F2", "completed_at": "2020-04-07 14:17:46.505062", "nsites": 3, "composition_unit_cell": {"Cd": 1.0, "F": 2.0}, "composition_reduced": {"Cd": 1.0, "F": 2.0}, "formula_pretty": "CdF2", "elements": ["Cd", "F"], "nelements": 2, "input": {"structure": {"@module": "pymatgen.core.structure", "@class": "Structure", "charge": null, "lattice": {"matrix": [[3.363492, 0.0, 1.941913], [1.121164, 3.171131, 1.941913], [0.0, 0.0, 3.883826]], "a": 3.883826017425729, "b": 3.8838262877767846, "c": 3.883826, "alpha": 60.000002451082665, "beta": 60.00000014842026, "gamma": 60.00000240160925, "volume": 41.425174546039166}, "sites": [{"species": [{"element": "Cd", "occu": 1}], "abc": [0.0, 0.0, 0.0], "xyz": [0.0, 0.0, 0.0], "label": "Cd", "properties": {}}, {"species": [{"element": "F", "occu": 1}], "abc": [0.75, 0.75, 0.75], "xyz": [3.363492, 2.37834825, 5.8257390000000004], "label": "F", "properties": {}}, {"species": [{"element": "F", "occu": 1}], "abc": [0.25, 0.25, 0.25], "xyz": [1.121164, 0.79278275, 1.941913], "label": "F", "properties": {}}]}, "is_hubbard": false, "hubbards": {}, "is_lasph": false, "potcar_spec": [{"titel": "PAW_PBE Cd 06Sep2000", "hash": "26e4263534cfc3846d68ba6afd65d05f"}, {"titel": "PAW_PBE F 08Apr2002", "hash": "5c4eeeaf2c4337bde6e8725019a3450e"}], "xc_override": null, "pseudo_potential": {"functional": "pbe", "pot_type": "paw", "labels": ["Cd", "F"]}, "parameters": {"SYSTEM": "unknown system", "LCOMPAT": false, "PREC": "accura", "ENMAX": 520.0, "ENAUG": 613.614, "EDIFF": 1e-07, "IALGO": 38, "IWAVPR": 10, "NBANDS": 18, "NELECT": 26.0, "TURBO": 0, "IRESTART": 0, "NREBOOT": 0, "NMIN": 0, "EREF": 0.0, "ISMEAR": -5, "SIGMA": 0.05, "KSPACING": 0.5, "KGAMMA": true, "LREAL": true, "ROPT": [-0.00025, -0.00025], "LMAXPAW": -100, "LMAXMIX": 2, "NLSPLINE": false, "ISTART": 0, "ICHARG": 0, "INIWAV": 1, "ISPIN": 2, "LNONCOLLINEAR": false, "MAGMOM": [0.0, 0.0, 0.0], "NUPDOWN": -1.0, "LSORBIT": false, "SAXIS": [0.0, 0.0, 1.0], "LSPIRAL": false, "QSPIRAL": [0.0, 0.0, 0.0], "LZEROZ": false, "LASPH": false, "LMETAGGA": false, "NELM": 100, "NELMDL": -5, "NELMIN": 2, "ENINI": 520.0, "LDIAG": true, "LSUBROT": false, "WEIMIN": 0.0, "EBREAK": 0.0, "DEPER": 0.3, "NRMM": 4, "TIME": 0.4, "AMIX": 0.4, "BMIX": 1.0, "AMIN": 0.1, "AMIX_MAG": 1.6, "BMIX_MAG": 1.0, "IMIX": 4, "MIXFIRST": false, "MAXMIX": -45, "WC": 100.0, "INIMIX": 1, "MIXPRE": 1, "MREMOVE": 5, "LDIPOL": false, "LMONO": false, "IDIPOL": 0, "EPSILON": 1.0, "DIPOL": [-100.0, -100.0, -100.0], "EFIELD": 0.0, "NGX": 30, "NGY": 30, "NGZ": 30, "NGXF": 60, "NGYF": 60, "NGZF": 60, "ADDGRID": false, "NSW": 0, "IBRION": -1, "ISIF": 3, "PSTRESS": 0.0, "EDIFFG": 1e-06, "NFREE": 0, "POTIM": 0.5, "SMASS": -3.0, "SCALEE": 1.0, "TEBEG": 0.0001, "TEEND": 0.0001, "NBLOCK": 1, "KBLOCK": 1, "NPACO": 256, "APACO": 16.0, "ISYM": 0, "SYMPREC": 1e-05, "LORBIT": false, "RWIGS": [-1.0, -1.0], "NEDOS": 301, "EMIN": 10.0, "EMAX": -10.0, "EFERMI": 0.0, "NWRITE": 2, "LWAVE": true, "LCHARG": true, "LPARD": false, "LVTOT": false, "LVHAR": false, "LELF": false, "LOPTICS": false, "STM": [0.0, 0.0, 0.0, 0.0, 0.0, 0.0, 0.0], "NPAR": 3, "NSIM": 4, "NBLK": -1, "LPLANE": true, "LSCALAPACK": true, "LSCAAWARE": false, "LSCALU": false, "LASYNC": false, "LORBITALREAL": false, "IDIOT": 3, "LMUSIC": false, "POMASS": [112.411, 18.998], "DARWINR": [0.0, 0.0], "DARWINV": [1.0, 1.0], "LCORR": true, "GGA_COMPAT": true, "LBERRY": false, "ICORELEVEL": 0, "LDAU": false, "I_CONSTRAINED_M": 0, "GGA": "--", "VOSKOWN": 0, "LHFCALC": false, "PRECFOCK": "", "LSYMGRAD": false, "LHFONE": false, "LRHFCALC": false, "LTHOMAS": false, "LMODELHF": false, "ENCUT4O": -1.0, "EXXOEP": 0, "FOURORBIT": 0, "AEXX": 0.0, "HFALPHA": 0.0, "MCALPHA": 0.0, "ALDAX": 1.0, "AGGAX": 1.0, "ALDAC": 1.0, "AGGAC": 1.0, "NKREDX": 1, "NKREDY": 1, "NKREDZ": 1, "SHIFTRED": false, "ODDONLY": false, "EVENONLY": false, "LMAXFOCK": 0, "NMAXFOCKAE": 0, "LFOCKAEDFT": false, "HFSCREEN": 0.0, "HFSCREENC": 0.0, "NBANDSGWLOW": 0, "LUSE_VDW": false, "Zab_VDW": -0.8491, "PARAM1": 0.1234, "PARAM2": 1.0, "PARAM3": 0.0, "MODEL_GW": 0, "MODEL_EPS0": 8.28503491, "MODEL_ALPHA": 1.0, "LEPSILON": false, "LRPA": false, "LNABLA": false, "LVEL": false, "KINTER": 0, "CSHIFT": 0.1, "OMEGAMAX": -1.0, "DEG_THRESHOLD": 0.002, "NUCIND": false, "MAGPOS": [0.0, 0.0, 0.0], "LNICSALL": true, "ORBITALMAG": false, "LMAGBLOCH": false, "LCHIMAG": false, "LGAUGE": true, "MAGATOM": 0, "MAGDIPOL": [0.0, 0.0, 0.0], "AVECCONST": [0.0, 0.0, 0.0], "LADDER": false, "LFXC": false, "LHARTREE": true, "IBSE": 0, "KPOINT": [-1, 0, 0, 0], "LTCTE": false, "LTETE": false, "LTRIPLET": false, "LFXCEPS": false, "LFXHEG": false, "NATURALO": 0, "L2ORDER": false, "LUSEW": false, "ENCUTGW": -2.0, "ENCUTGWSOFT": -2.0, "ENCUTLF": -1.0, "LMAXMP2": -1, "SCISSOR": 0.0, "NOMEGA": 0, "NOMEGAR": 0, "NBANDSGW": -1, "NBANDSO": -1, "NBANDSV": -1, "NELMHF": 1, "DIM": 3, "ANTIRES": 0, "OMEGAMIN": -30.0, "OMEGATL": -200.0, "OMEGAGRID": 0, "SELFENERGY": false, "LSPECTRAL": false, "LSPECTRALGW": false, "LSINGLES": false, "LFERMIGW": false, "ODDONLYGW": false, "EVENONLYGW": false, "NKREDLFX": 1, "NKREDLFY": 1, "NKREDLFZ": 1, "MAXMEM": 1800, "TELESCOPE": 0, "TAUPAR": 1, "OMEGAPAR": -1, "LAMBDA": 1.0, "OFIELD_KAPPA": 0.0, "OFIELD_K": [0.0, 0.0, 0.0], "OFIELD_Q6_NEAR": 0.0, "OFIELD_Q6_FAR": 0.0, "OFIELD_A": 0.0}, "incar": {"PREC": "accurate", "ALGO": "Normal", "ISPIN": 2, "ICHARG": 0, "NELM": 100, "IBRION": -1, "EDIFF": 1e-07, "NSW": 0, "ISIF": 3, "ISYM": 0, "ENCUT": 520.0, "NBANDS": 17, "MAGMOM": [0.0, 0.0, 0.0], "LREAL": "Auto", "ISMEAR": -5, "SIGMA": 0.05, "LWAVE": true, "LORBIT": false, "KPOINT_BSE": [-1, 0, 0, 0]}}, "output": {"structure": {"@module": "pymatgen.core.structure", "@class": "Structure", "charge": null, "lattice": {"matrix": [[3.363492, 0.0, 1.941913], [1.121164, 3.171131, 1.941913], [0.0, 0.0, 3.883826]], "a": 3.883826017425729, "b": 3.8838262877767846, "c": 3.883826, "alpha": 60.000002451082665, "beta": 60.00000014842026, "gamma": 60.00000240160925, "volume": 41.425174546039166}, "sites": [{"species": [{"element": "Cd", "occu": 1}], "abc": [0.0, 0.0, 0.0], "xyz": [0.0, 0.0, 0.0], "label": "Cd", "properties": {"magmom": 0.0}}, {"species": [{"element": "F", "occu": 1}], "abc": [0.75, 0.75, 0.75], "xyz": [3.363492, 2.37834825, 5.8257390000000004], "label": "F", "properties": {"magmom": -0.0}}, {"species": [{"element": "F", "occu": 1}], "abc": [0.25, 0.25, 0.25], "xyz": [1.121164, 0.79278275, 1.941913], "label": "F", "properties": {"magmom": 0.0}}]}, "density": 6.0291366587057595, "energy": -10.92028475, "energy_per_atom": -3.640094916666667, "forces": [[2.02e-06, -9.7e-07, -4.17e-06], [1.65e-06, 6e-07, 6.28e-06], [-3.67e-06, 3.7e-07, -2.11e-06]], "stress": [[-1.54697725, 0.00085902, 0.00195218], [0.00085947, -1.54716892, 0.0013504], [0.00195205, 0.00135076, -1.54483264]], "bandgap": 4.9165, "cbm": 2.9356, "vbm": -1.9809, "is_gap_direct": false, "is_metal": false, "direct_gap": 5.1492, "spacegroup": {"source": "spglib", "symbol": "Fm-3m", "number": 225, "point_group": "m-3m", "crystal_system": "cubic", "hall": "-F 4 2 3"}}, "state": "successful", "analysis": {"delta_volume": 0.0, "delta_volume_as_percent": 0.0, "max_force": 6.5208051650083825e-06, "warnings": [], "errors": []}, "last_updated": "2020-04-07T12:17:47.398879", "transformations": {}, "orig_inputs": {"incar": {"ALGO": "Normal", "EDIFF": 1e-07, "ENCUT": 520, "IBRION": -1, "ICHARG": 0, "ISIF": 3, "ISMEAR": -5, "ISPIN": 2, "ISYM": 0, "LORBIT": 11, "LREAL": "Auto", "LWAVE": true, "MAGMOM": [0.0, 0.0, 0.0], "NBANDS": 17, "NELM": 100, "NSW": 0, "PREC": "Accurate", "SIGMA": 0.05, "@module": "pymatgen.io.vasp.inputs", "@class": "Incar"}, "kpoints": {"comment": "Automatic kpoint scheme", "nkpoints": 0, "generation_style": "Monkhorst", "kpoints": [[12, 12, 12]], "usershift": [0, 0, 0], "kpts_weights": null, "coord_type": null, "labels": null, "tet_number": 0, "tet_weight": 0, "tet_connections": null, "@module": "pymatgen.io.vasp.inputs", "@class": "Kpoints"}, "poscar": {"@module": "pymatgen.io.vasp.inputs", "@class": "Poscar", "structure": {"@module": "pymatgen.core.structure", "@class": "Structure", "charge": null, "lattice": {"matrix": [[3.363492, 0.0, 1.941913], [1.121164, 3.171131, 1.941913], [0.0, 0.0, 3.883826]], "a": 3.883826017425729, "b": 3.8838262877767846, "c": 3.883826, "alpha": 60.000002451082665, "beta": 60.00000014842026, "gamma": 60.00000240160925, "volume": 41.425174546039166}, "sites": [{"species": [{"element": "Cd", "occu": 1}], "abc": [0.0, 0.0, 0.0], "xyz": [0.0, 0.0, 0.0], "label": "Cd", "properties": {}}, {"species": [{"element": "F", "occu": 1}], "abc": [0.75, 0.75, 0.75], "xyz": [3.363492, 2.37834825, 5.8257390000000004], "label": "F", "properties": {}}, {"species": [{"element": "F", "occu": 1}], "abc": [0.25, 0.25, 0.25], "xyz": [1.121164, 0.79278275, 1.941913], "label": "F", "properties": {}}]}, "true_names": true, "selective_dynamics": null, "velocities": null, "predictor_corrector": null, "comment": "Cd1 F2"}, "potcar": {"functional": "PBE", "symbols": ["Cd", "F"], "@module": "pymatgen.io.vasp.inputs", "@class": "Potcar"}}}