    3    3    1    2
  0.1380839E+02  0.3883826E-09  0.3883826E-09  0.3883826E-09  0.5000000E-15
  1.000000000000000E-004
  CAR 
 unknown system                          
     26     16     18
 
  0.2500000E+00  0.2500000E+00  0.2500000E+00  0.6250000E-01
    1      -22.080766    -22.080766   1.000000   1.000000
    2      -21.426779    -21.426779   1.000000   1.000000
    3       -7.029074     -7.029074   1.000000   1.000000
    4       -7.029072     -7.029072   1.000000   1.000000
    5       -6.675988     -6.675989   1.000000   1.000000
    6       -6.241920     -6.241920   1.000000   1.000000
    7       -6.241918     -6.241918   1.000000   1.000000
    8       -3.726375     -3.726375   1.000000   1.000000
    9       -2.960629     -2.960630   1.000000   1.000000
   10       -2.960628     -2.960628   1.000000   1.000000
   11       -2.817901     -2.817901   1.000000   1.000000
   12       -2.213553     -2.213553   1.000000   1.000000
   13       -2.213551     -2.213551   1.000000   1.000000
   14        2.935606      2.935605   0.000000   0.000000
   15        8.822500      8.822499   0.000000   0.000000
   16       11.423798     11.423795   0.000000   0.000000
   17       11.423802     11.423800   0.000000   0.000000
   18       16.668974     16.668976   0.000000   0.000000
 
  0.2500000E+00  0.0000000E+00  0.0000000E+00  0.6250000E-01
    1      -22.080766    -22.080766   1.000000   1.000000
    2      -21.426779    -21.426779   1.000000   1.000000
    3       -7.029074     -7.029074   1.000000   1.000000
    4       -7.029072     -7.029074   1.000000   1.000000
    5       -6.675987     -6.675988   1.000000   1.000000
    6       -6.241920     -6.241920   1.000000   1.000000
    7       -6.241917     -6.241917   1.000000   1.000000
    8       -3.726370     -3.726371   1.000000   1.000000
    9       -2.960633     -2.960632   1.000000   1.000000
   10       -2.960628     -2.960629   1.000000   1.000000
   11       -2.817899     -2.817900   1.000000   1.000000
   12       -2.213556     -2.213555   1.000000   1.000000
   13       -2.213552     -2.213553   1.000000   1.000000
   14        2.935607      2.935606   0.000000   0.000000
   15        8.822501      8.822500   0.000000   0.000000
   16       11.423798     11.423793   0.000000   0.000000
   17       11.423802     11.423801   0.000000   0.000000
   18       16.668975     16.668972   0.000000   0.000000
 
  0.0000000E+00 -0.2775558E-16 -0.2500000E+00  0.6250000E-01
    1      -22.080766    -22.080766   1.000000   1.000000
    2      -21.426779    -21.426779   1.000000   1.000000
    3       -7.029074     -7.029075   1.000000   1.000000
    4       -7.029073     -7.029073   1.000000   1.000000
    5       -6.675987     -6.675988   1.000000   1.000000
    6       -6.241921     -6.241920   1.000000   1.000000
    7       -6.241917     -6.241917   1.000000   1.000000
    8       -3.726371     -3.726372   1.000000   1.000000
    9       -2.960632     -2.960633   1.000000   1.000000
   10       -2.960629     -2.960629   1.000000   1.000000
   11       -2.817898     -2.817900   1.000000   1.000000
   12       -2.213555     -2.213556   1.000000   1.000000
   13       -2.213553     -2.213552   1.000000   1.000000
   14        2.935607      2.935606   0.000000   0.000000
   15        8.822500      8.822499   0.000000   0.000000
   16       11.423798     11.423794   0.000000   0.000000
   17       11.423803     11.423802   0.000000   0.000000
   18       16.668975     16.668978   0.000000   0.000000
 
  0.0000000E+00  0.2500000E+00  0.0000000E+00  0.6250000E-01
    1      -22.080766    -22.080766   1.000000   1.000000
    2      -21.426779    -21.426779   1.000000   1.000000
    3       -7.029074     -7.029075   1.000000   1.000000
    4       -7.029073     -7.029074   1.000000   1.000000
    5       -6.675988     -6.675987   1.000000   1.000000
    6       -6.241920     -6.241920   1.000000   1.000000
    7       -6.241917     -6.241917   1.000000   1.000000
    8       -3.726371     -3.726370   1.000000   1.000000
    9       -2.960633     -2.960632   1.000000   1.000000
   10       -2.960628     -2.960630   1.000000   1.000000
   11       -2.817900     -2.817899   1.000000   1.000000
   12       -2.213555     -2.213555   1.000000   1.000000
   13       -2.213551     -2.213553   1.000000   1.000000
   14        2.935606      2.935606   0.000000   0.000000
   15        8.822500      8.822498   0.000000   0.000000
   16       11.423798     11.423796   0.000000   0.000000
   17       11.423803     11.423802   0.000000   0.000000
   18       16.668978     16.668975   0.000000   0.000000
 
 -0.2500000E+00  0.2500000E+00  0.2500000E+00  0.6250000E-01
    1      -21.826774    -21.826775   1.000000   1.000000
    2      -21.636959    -21.636959   1.000000   1.000000
    3       -6.778437     -6.778436   1.000000   1.000000
    4       -6.681603     -6.681604   1.000000   1.000000
    5       -6.390240     -6.390238   1.000000   1.000000
    6       -6.169637     -6.169639   1.000000   1.000000
    7       -6.114164     -6.114164   1.000000   1.000000
    8       -4.756257     -4.756258   1.000000   1.000000
    9       -3.849585     -3.849586   1.000000   1.000000
   10       -3.833085     -3.833085   1.000000   1.000000
   11       -2.584028     -2.584029   1.000000   1.000000
   12       -2.110367     -2.110367   1.000000   1.000000
   13       -1.980895     -1.980896   1.000000   1.000000
   14        5.227005      5.227004   0.000000   0.000000
   15        7.998090      7.998090   0.000000   0.000000
   16       10.612716     10.612716   0.000000   0.000000
   17       12.104101     12.104098   0.000000   0.000000
   18       12.768617     12.768616   0.000000   0.000000
 
  0.2500000E+00 -0.2500000E+00  0.2500000E+00  0.6250000E-01
    1      -21.826774    -21.826775   1.000000   1.000000
    2      -21.636959    -21.636959   1.000000   1.000000
    3       -6.778437     -6.778437   1.000000   1.000000
    4       -6.681603     -6.681605   1.000000   1.000000
    5       -6.390239     -6.390239   1.000000   1.000000
    6       -6.169638     -6.169638   1.000000   1.000000
    7       -6.114163     -6.114164   1.000000   1.000000
    8       -4.756258     -4.756257   1.000000   1.000000
    9       -3.849585     -3.849586   1.000000   1.000000
   10       -3.833085     -3.833085   1.000000   1.000000
   11       -2.584029     -2.584028   1.000000   1.000000
   12       -2.110366     -2.110366   1.000000   1.000000
   13       -1.980895     -1.980897   1.000000   1.000000
   14        5.227005      5.227005   0.000000   0.000000
   15        7.998091      7.998092   0.000000   0.000000
   16       10.612715     10.612716   0.000000   0.000000
   17       12.104102     12.104097   0.000000   0.000000
   18       12.768617     12.768616   0.000000   0.000000
 
  0.2500000E+00  0.2500000E+00 -0.2500000E+00  0.6250000E-01
    1      -21.826774    -21.826775   1.000000   1.000000
    2      -21.636959    -21.636959   1.000000   1.000000
    3       -6.778436     -6.778437   1.000000   1.000000
    4       -6.681603     -6.681604   1.000000   1.000000
    5       -6.390238     -6.390240   1.000000   1.000000
    6       -6.169640     -6.169636   1.000000   1.000000
    7       -6.114163     -6.114165   1.000000   1.000000
    8       -4.756257     -4.756258   1.000000   1.000000
    9       -3.849586     -3.849585   1.000000   1.000000
   10       -3.833085     -3.833085   1.000000   1.000000
   11       -2.584029     -2.584029   1.000000   1.000000
   12       -2.110366     -2.110368   1.000000   1.000000
   13       -1.980896     -1.980896   1.000000   1.000000
   14        5.227006      5.227004   0.000000   0.000000
   15        7.998094      7.998087   0.000000   0.000000
   16       10.612715     10.612716   0.000000   0.000000
   17       12.104099     12.104100   0.000000   0.000000
   18       12.768618     12.768613   0.000000   0.000000
 
  0.2500000E+00  0.0000000E+00  0.5000000E+00  0.6250000E-01
    1      -21.826774    -21.826775   1.000000   1.000000
    2      -21.636959    -21.636959   1.000000   1.000000
    3       -6.778436     -6.778438   1.000000   1.000000
    4       -6.681604     -6.681604   1.000000   1.000000
    5       -6.390239     -6.390238   1.000000   1.000000
    6       -6.169638     -6.169638   1.000000   1.000000
    7       -6.114163     -6.114164   1.000000   1.000000
    8       -4.756257     -4.756257   1.000000   1.000000
    9       -3.849588     -3.849588   1.000000   1.000000
   10       -3.833084     -3.833085   1.000000   1.000000
   11       -2.584025     -2.584027   1.000000   1.000000
   12       -2.110365     -2.110365   1.000000   1.000000
   13       -1.980899     -1.980899   1.000000   1.000000
   14        5.227005      5.227005   0.000000   0.000000
   15        7.998091      7.998092   0.000000   0.000000
   16       10.612716     10.612716   0.000000   0.000000
   17       12.104101     12.104095   0.000000   0.000000
   18       12.768616     12.768618   0.000000   0.000000
 
 -0.2500000E+00  0.5000000E+00  0.5000000E+00  0.6250000E-01
    1      -21.826774    -21.826775   1.000000   1.000000
    2      -21.636959    -21.636959   1.000000   1.000000
    3       -6.778437     -6.778435   1.000000   1.000000
    4       -6.681602     -6.681603   1.000000   1.000000
    5       -6.390238     -6.390240   1.000000   1.000000
    6       -6.169638     -6.169640   1.000000   1.000000
    7       -6.114164     -6.114164   1.000000   1.000000
    8       -4.756259     -4.756259   1.000000   1.000000
    9       -3.849585     -3.849586   1.000000   1.000000
   10       -3.833086     -3.833085   1.000000   1.000000
   11       -2.584027     -2.584028   1.000000   1.000000
   12       -2.110366     -2.110365   1.000000   1.000000
   13       -1.980895     -1.980896   1.000000   1.000000
   14        5.227005      5.227004   0.000000   0.000000
   15        7.998088      7.998089   0.000000   0.000000
   16       10.612718     10.612716   0.000000   0.000000
   17       12.104101     12.104098   0.000000   0.000000
   18       12.768616     12.768616   0.000000   0.000000
 
  0.2500000E+00  0.5000000E+00  0.0000000E+00  0.6250000E-01
    1      -21.826774    -21.826775   1.000000   1.000000
    2      -21.636959    -21.636959   1.000000   1.000000
    3       -6.778436     -6.778438   1.000000   1.000000
    4       -6.681604     -6.681604   1.000000   1.000000
    5       -6.390238     -6.390239   1.000000   1.000000
    6       -6.169640     -6.169637   1.000000   1.000000
    7       -6.114163     -6.114164   1.000000   1.000000
    8       -4.756257     -4.756257   1.000000   1.000000
    9       -3.849588     -3.849587   1.000000   1.000000
   10       -3.833085     -3.833085   1.000000   1.000000
   11       -2.584026     -2.584026   1.000000   1.000000
   12       -2.110364     -2.110367   1.000000   1.000000
   13       -1.980898     -1.980898   1.000000   1.000000
   14        5.227005      5.227004   0.000000   0.000000
   15        7.998093      7.998087   0.000000   0.000000
   16       10.612717     10.612716   0.000000   0.000000
   17       12.104099     12.104101   0.000000   0.000000
   18       12.768618     12.768614   0.000000   0.000000
 
  0.0000000E+00  0.5000000E+00 -0.2500000E+00  0.6250000E-01
    1      -21.826774    -21.826775   1.000000   1.000000
    2      -21.636959    -21.636959   1.000000   1.000000
    3       -6.778437     -6.778437   1.000000   1.000000
    4       -6.681603     -6.681605   1.000000   1.000000
    5       -6.390238     -6.390238   1.000000   1.000000
    6       -6.169637     -6.169640   1.000000   1.000000
    7       -6.114164     -6.114163   1.000000   1.000000
    8       -4.756257     -4.756257   1.000000   1.000000
    9       -3.849587     -3.849588   1.000000   1.000000
   10       -3.833085     -3.833085   1.000000   1.000000
   11       -2.584026     -2.584026   1.000000   1.000000
   12       -2.110366     -2.110366   1.000000   1.000000
   13       -1.980898     -1.980899   1.000000   1.000000
   14        5.227004      5.227004   0.000000   0.000000
   15        7.998090      7.998090   0.000000   0.000000
   16       10.612718     10.612715   0.000000   0.000000
   17       12.104101     12.104100   0.000000   0.000000
   18       12.768614     12.768614   0.000000   0.000000
 
  0.5000000E+00 -0.4163336E-16 -0.2500000E+00  0.6250000E-01
    1      -21.826774    -21.826775   1.000000   1.000000
    2      -21.636959    -21.636959   1.000000   1.000000
    3       -6.778437     -6.778437   1.000000   1.000000
    4       -6.681604     -6.681604   1.000000   1.000000
    5       -6.390238     -6.390239   1.000000   1.000000
    6       -6.169638     -6.169638   1.000000   1.000000
    7       -6.114163     -6.114164   1.000000   1.000000
    8       -4.756257     -4.756257   1.000000   1.000000
    9       -3.849588     -3.849588   1.000000   1.000000
   10       -3.833084     -3.833085   1.000000   1.000000
   11       -2.584025     -2.584027   1.000000   1.000000
   12       -2.110365     -2.110365   1.000000   1.000000
   13       -1.980899     -1.980899   1.000000   1.000000
   14        5.227005      5.227005   0.000000   0.000000
   15        7.998091      7.998092   0.000000   0.000000
   16       10.612717     10.612716   0.000000   0.000000
   17       12.104101     12.104095   0.000000   0.000000
   18       12.768615     12.768617   0.000000   0.000000
 
  0.5000000E+00  0.5000000E+00  0.2500000E+00  0.6250000E-01
    1      -21.826774    -21.826775   1.000000   1.000000
    2      -21.636959    -21.636959   1.000000   1.000000
    3       -6.778435     -6.778437   1.000000   1.000000
    4       -6.681604     -6.681601   1.000000   1.000000
    5       -6.390238     -6.390240   1.000000   1.000000
    6       -6.169639     -6.169638   1.000000   1.000000
    7       -6.114163     -6.114165   1.000000   1.000000
    8       -4.756258     -4.756259   1.000000   1.000000
    9       -3.849586     -3.849585   1.000000   1.000000
   10       -3.833086     -3.833086   1.000000   1.000000
   11       -2.584028     -2.584028   1.000000   1.000000
   12       -2.110364     -2.110366   1.000000   1.000000
   13       -1.980896     -1.980895   1.000000   1.000000
   14        5.227005      5.227004   0.000000   0.000000
   15        7.998091      7.998087   0.000000   0.000000
   16       10.612718     10.612715   0.000000   0.000000
   17       12.104099     12.104101   0.000000   0.000000
   18       12.768616     12.768613   0.000000   0.000000
 
  0.5000000E+00 -0.2500000E+00  0.5000000E+00  0.6250000E-01
    1      -21.826774    -21.826775   1.000000   1.000000
    2      -21.636959    -21.636959   1.000000   1.000000
    3       -6.778437     -6.778436   1.000000   1.000000
    4       -6.681603     -6.681604   1.000000   1.000000
    5       -6.390238     -6.390239   1.000000   1.000000
    6       -6.169638     -6.169639   1.000000   1.000000
    7       -6.114163     -6.114164   1.000000   1.000000
    8       -4.756259     -4.756259   1.000000   1.000000
    9       -3.849585     -3.849587   1.000000   1.000000
   10       -3.833086     -3.833086   1.000000   1.000000
   11       -2.584028     -2.584028   1.000000   1.000000
   12       -2.110365     -2.110365   1.000000   1.000000
   13       -1.980895     -1.980897   1.000000   1.000000
   14        5.227005      5.227005   0.000000   0.000000
   15        7.998088      7.998091   0.000000   0.000000
   16       10.612717     10.612715   0.000000   0.000000
   17       12.104102     12.104097   0.000000   0.000000
   18       12.768615     12.768616   0.000000   0.000000
 
  0.0000000E+00  0.2500000E+00  0.5000000E+00  0.6250000E-01
    1      -21.826774    -21.826775   1.000000   1.000000
    2      -21.636959    -21.636959   1.000000   1.000000
    3       -6.778437     -6.778437   1.000000   1.000000
    4       -6.681603     -6.681605   1.000000   1.000000
    5       -6.390239     -6.390237   1.000000   1.000000
    6       -6.169638     -6.169640   1.000000   1.000000
    7       -6.114163     -6.114164   1.000000   1.000000
    8       -4.756257     -4.756257   1.000000   1.000000
    9       -3.849587     -3.849588   1.000000   1.000000
   10       -3.833084     -3.833085   1.000000   1.000000
   11       -2.584026     -2.584026   1.000000   1.000000
   12       -2.110366     -2.110365   1.000000   1.000000
   13       -1.980898     -1.980899   1.000000   1.000000
   14        5.227005      5.227005   0.000000   0.000000
   15        7.998090      7.998090   0.000000   0.000000
   16       10.612717     10.612715   0.000000   0.000000
   17       12.104101     12.104100   0.000000   0.000000
   18       12.768614     12.768614   0.000000   0.000000
 
  0.5000000E+00  0.2500000E+00  0.0000000E+00  0.6250000E-01
    1      -21.826774    -21.826775   1.000000   1.000000
    2      -21.636959    -21.636959   1.000000   1.000000
    3       -6.778436     -6.778437   1.000000   1.000000
    4       -6.681604     -6.681604   1.000000   1.000000
    5       -6.390238     -6.390238   1.000000   1.000000
    6       -6.169640     -6.169637   1.000000   1.000000
    7       -6.114163     -6.114165   1.000000   1.000000
    8       -4.756257     -4.756257   1.000000   1.000000
    9       -3.849588     -3.849587   1.000000   1.000000
   10       -3.833085     -3.833085   1.000000   1.000000
   11       -2.584026     -2.584026   1.000000   1.000000
   12       -2.110365     -2.110367   1.000000   1.000000
   13       -1.980898     -1.980898   1.000000   1.000000
   14        5.227006      5.227004   0.000000   0.000000
   15        7.998093      7.998087   0.000000   0.000000
   16       10.612718     10.612715   0.000000   0.000000
   17       12.104099     12.104101   0.000000   0.000000
   18       12.768616     12.768614   0.000000   0.000000
