   3   3   1   0
  0.1380839E+02  0.3883826E-09  0.3883826E-09  0.3883826E-09  0.5000000E-15
  1.000000000000000E-004
  CAR 
 unknown system                          
     18.60646532    -24.01825337  301     -1.92444085      1.00000000
    -24.018  0.0000E+00  0.0000E+00  0.0000E+00  0.0000E+00
    -23.876  0.0000E+00  0.0000E+00  0.0000E+00  0.0000E+00
    -23.734  0.0000E+00  0.0000E+00  0.0000E+00  0.0000E+00
    -23.592  0.0000E+00  0.0000E+00  0.0000E+00  0.0000E+00
    -23.450  0.0000E+00  0.0000E+00  0.0000E+00  0.0000E+00
    -23.308  0.0000E+00  0.0000E+00  0.0000E+00  0.0000E+00
    -23.166  0.0000E+00  0.0000E+00  0.0000E+00  0.0000E+00
    -23.024  0.0000E+00  0.0000E+00  0.0000E+00  0.0000E+00
    -22.882  0.0000E+00  0.0000E+00  0.0000E+00  0.0000E+00
    -22.740  0.0000E+00  0.0000E+00  0.0000E+00  0.0000E+00
    -22.597  0.0000E+00  0.0000E+00  0.0000E+00  0.0000E+00
    -22.455  0.0000E+00  0.0000E+00  0.0000E+00  0.0000E+00
    -22.313  0.0000E+00  0.0000E+00  0.0000E+00  0.0000E+00
    -22.171  0.0000E+00  0.0000E+00  0.0000E+00  0.0000E+00
    -22.029  0.1339E+01  0.1339E+01  0.8491E-01  0.8491E-01
    -21.887  0.2991E+01  0.2991E+01  0.3925E+00  0.3925E+00
    -21.745  0.0000E+00  0.0000E+00  0.1000E+01  0.1000E+01
    -21.603  0.3881E+01  0.3881E+01  0.1549E+01  0.1549E+01
    -21.461  0.1469E+01  0.1469E+01  0.1929E+01  0.1929E+01
    -21.319  0.0000E+00  0.0000E+00  0.2000E+01  0.2000E+01
    -21.177  0.0000E+00  0.0000E+00  0.2000E+01  0.2000E+01
    -21.035  0.0000E+00  0.0000E+00  0.2000E+01  0.2000E+01
    -20.892  0.0000E+00  0.0000E+00  0.2000E+01  0.2000E+01
    -20.750  0.0000E+00  0.0000E+00  0.2000E+01  0.2000E+01
    -20.608  0.0000E+00  0.0000E+00  0.2000E+01  0.2000E+01
    -20.466  0.0000E+00  0.0000E+00  0.2000E+01  0.2000E+01
    -20.324  0.0000E+00  0.0000E+00  0.2000E+01  0.2000E+01
    -20.182  0.0000E+00  0.0000E+00  0.2000E+01  0.2000E+01
    -20.040  0.0000E+00  0.0000E+00  0.2000E+01  0.2000E+01
    -19.898  0.0000E+00  0.0000E+00  0.2000E+01  0.2000E+01
    -19.756  0.0000E+00  0.0000E+00  0.2000E+01  0.2000E+01
    -19.614  0.0000E+00  0.0000E+00  0.2000E+01  0.2000E+01
    -19.472  0.0000E+00  0.0000E+00  0.2000E+01  0.2000E+01
    -19.330  0.0000E+00  0.0000E+00  0.2000E+01  0.2000E+01
    -19.187  0.0000E+00  0.0000E+00  0.2000E+01  0.2000E+01
    -19.045  0.0000E+00  0.0000E+00  0.2000E+01  0.2000E+01
    -18.903  0.0000E+00  0.0000E+00  0.2000E+01  0.2000E+01
    -18.761  0.0000E+00  0.0000E+00  0.2000E+01  0.2000E+01
    -18.619  0.0000E+00  0.0000E+00  0.2000E+01  0.2000E+01
    -18.477  0.0000E+00  0.0000E+00  0.2000E+01  0.2000E+01
    -18.335  0.0000E+00  0.0000E+00  0.2000E+01  0.2000E+01
    -18.193  0.0000E+00  0.0000E+00  0.2000E+01  0.2000E+01
    -18.051  0.0000E+00  0.0000E+00  0.2000E+01  0.2000E+01
    -17.909  0.0000E+00  0.0000E+00  0.2000E+01  0.2000E+01
    -17.767  0.0000E+00  0.0000E+00  0.2000E+01  0.2000E+01
    -17.625  0.0000E+00  0.0000E+00  0.2000E+01  0.2000E+01
    -17.482  0.0000E+00  0.0000E+00  0.2000E+01  0.2000E+01
    -17.340  0.0000E+00  0.0000E+00  0.2000E+01  0.2000E+01
    -17.198  0.0000E+00  0.0000E+00  0.2000E+01  0.2000E+01
    -17.056  0.0000E+00  0.0000E+00  0.2000E+01  0.2000E+01
    -16.914  0.0000E+00  0.0000E+00  0.2000E+01  0.2000E+01
    -16.772  0.0000E+00  0.0000E+00  0.2000E+01  0.2000E+01
    -16.630  0.0000E+00  0.0000E+00  0.2000E+01  0.2000E+01
    -16.488  0.0000E+00  0.0000E+00  0.2000E+01  0.2000E+01
    -16.346  0.0000E+00  0.0000E+00  0.2000E+01  0.2000E+01
    -16.204  0.0000E+00  0.0000E+00  0.2000E+01  0.2000E+01
    -16.062  0.0000E+00  0.0000E+00  0.2000E+01  0.2000E+01
    -15.920  0.0000E+00  0.0000E+00  0.2000E+01  0.2000E+01
    -15.777  0.0000E+00  0.0000E+00  0.2000E+01  0.2000E+01
    -15.635  0.0000E+00  0.0000E+00  0.2000E+01  0.2000E+01
    -15.493  0.0000E+00  0.0000E+00  0.2000E+01  0.2000E+01
    -15.351  0.0000E+00  0.0000E+00  0.2000E+01  0.2000E+01
    -15.209  0.0000E+00  0.0000E+00  0.2000E+01  0.2000E+01
    -15.067  0.0000E+00  0.0000E+00  0.2000E+01  0.2000E+01
    -14.925  0.0000E+00  0.0000E+00  0.2000E+01  0.2000E+01
    -14.783  0.0000E+00  0.0000E+00  0.2000E+01  0.2000E+01
    -14.641  0.0000E+00  0.0000E+00  0.2000E+01  0.2000E+01
    -14.499  0.0000E+00  0.0000E+00  0.2000E+01  0.2000E+01
    -14.357  0.0000E+00  0.0000E+00  0.2000E+01  0.2000E+01
    -14.215  0.0000E+00  0.0000E+00  0.2000E+01  0.2000E+01
    -14.072  0.0000E+00  0.0000E+00  0.2000E+01  0.2000E+01
    -13.930  0.0000E+00  0.0000E+00  0.2000E+01  0.2000E+01
    -13.788  0.0000E+00  0.0000E+00  0.2000E+01  0.2000E+01
    -13.646  0.0000E+00  0.0000E+00  0.2000E+01  0.2000E+01
    -13.504  0.0000E+00  0.0000E+00  0.2000E+01  0.2000E+01
    -13.362  0.0000E+00  0.0000E+00  0.2000E+01  0.2000E+01
    -13.220  0.0000E+00  0.0000E+00  0.2000E+01  0.2000E+01
    -13.078  0.0000E+00  0.0000E+00  0.2000E+01  0.2000E+01
    -12.936  0.0000E+00  0.0000E+00  0.2000E+01  0.2000E+01
    -12.794  0.0000E+00  0.0000E+00  0.2000E+01  0.2000E+01
    -12.652  0.0000E+00  0.0000E+00  0.2000E+01  0.2000E+01
    -12.510  0.0000E+00  0.0000E+00  0.2000E+01  0.2000E+01
    -12.367  0.0000E+00  0.0000E+00  0.2000E+01  0.2000E+01
    -12.225  0.0000E+00  0.0000E+00  0.2000E+01  0.2000E+01
    -12.083  0.0000E+00  0.0000E+00  0.2000E+01  0.2000E+01
    -11.941  0.0000E+00  0.0000E+00  0.2000E+01  0.2000E+01
    -11.799  0.0000E+00  0.0000E+00  0.2000E+01  0.2000E+01
    -11.657  0.0000E+00  0.0000E+00  0.2000E+01  0.2000E+01
    -11.515  0.0000E+00  0.0000E+00  0.2000E+01  0.2000E+01
    -11.373  0.0000E+00  0.0000E+00  0.2000E+01  0.2000E+01
    -11.231  0.0000E+00  0.0000E+00  0.2000E+01  0.2000E+01
    -11.089  0.0000E+00  0.0000E+00  0.2000E+01  0.2000E+01
    -10.947  0.0000E+00  0.0000E+00  0.2000E+01  0.2000E+01
    -10.805  0.0000E+00  0.0000E+00  0.2000E+01  0.2000E+01
    -10.663  0.0000E+00  0.0000E+00  0.2000E+01  0.2000E+01
    -10.520  0.0000E+00  0.0000E+00  0.2000E+01  0.2000E+01
    -10.378  0.0000E+00  0.0000E+00  0.2000E+01  0.2000E+01
    -10.236  0.0000E+00  0.0000E+00  0.2000E+01  0.2000E+01
    -10.094  0.0000E+00  0.0000E+00  0.2000E+01  0.2000E+01
     -9.952  0.0000E+00  0.0000E+00  0.2000E+01  0.2000E+01
     -9.810  0.0000E+00  0.0000E+00  0.2000E+01  0.2000E+01
     -9.668  0.0000E+00  0.0000E+00  0.2000E+01  0.2000E+01
     -9.526  0.0000E+00  0.0000E+00  0.2000E+01  0.2000E+01
     -9.384  0.0000E+00  0.0000E+00  0.2000E+01  0.2000E+01
     -9.242  0.0000E+00  0.0000E+00  0.2000E+01  0.2000E+01
     -9.100  0.0000E+00  0.0000E+00  0.2000E+01  0.2000E+01
     -8.958  0.0000E+00  0.0000E+00  0.2000E+01  0.2000E+01
     -8.815  0.0000E+00  0.0000E+00  0.2000E+01  0.2000E+01
     -8.673  0.0000E+00  0.0000E+00  0.2000E+01  0.2000E+01
     -8.531  0.0000E+00  0.0000E+00  0.2000E+01  0.2000E+01
     -8.389  0.0000E+00  0.0000E+00  0.2000E+01  0.2000E+01
     -8.247  0.0000E+00  0.0000E+00  0.2000E+01  0.2000E+01
     -8.105  0.0000E+00  0.0000E+00  0.2000E+01  0.2000E+01
     -7.963  0.0000E+00  0.0000E+00  0.2000E+01  0.2000E+01
     -7.821  0.0000E+00  0.0000E+00  0.2000E+01  0.2000E+01
     -7.679  0.0000E+00  0.0000E+00  0.2000E+01  0.2000E+01
     -7.537  0.0000E+00  0.0000E+00  0.2000E+01  0.2000E+01
     -7.395  0.0000E+00  0.0000E+00  0.2000E+01  0.2000E+01
     -7.253  0.0000E+00  0.0000E+00  0.2000E+01  0.2000E+01
     -7.110  0.0000E+00  0.0000E+00  0.2000E+01  0.2000E+01
     -6.968  0.2390E+01  0.2390E+01  0.2174E+01  0.2174E+01
     -6.826  0.4969E+01  0.4969E+01  0.2697E+01  0.2697E+01
     -6.684  0.2682E+01  0.2682E+01  0.3587E+01  0.3587E+01
     -6.542  0.1886E+01  0.1886E+01  0.4201E+01  0.4201E+01
     -6.400  0.3191E+01  0.3191E+01  0.4562E+01  0.4562E+01
     -6.258  0.0000E+00  0.0000E+00  0.5000E+01  0.5000E+01
     -6.116  0.7260E+01  0.7260E+01  0.6581E+01  0.6581E+01
     -5.974  0.0000E+00  0.0000E+00  0.7000E+01  0.7000E+01
     -5.832  0.0000E+00  0.0000E+00  0.7000E+01  0.7000E+01
     -5.690  0.0000E+00  0.0000E+00  0.7000E+01  0.7000E+01
     -5.548  0.0000E+00  0.0000E+00  0.7000E+01  0.7000E+01
     -5.405  0.0000E+00  0.0000E+00  0.7000E+01  0.7000E+01
     -5.263  0.0000E+00  0.0000E+00  0.7000E+01  0.7000E+01
     -5.121  0.0000E+00  0.0000E+00  0.7000E+01  0.7000E+01
     -4.979  0.0000E+00  0.0000E+00  0.7000E+01  0.7000E+01
     -4.837  0.0000E+00  0.0000E+00  0.7000E+01  0.7000E+01
     -4.695  0.8670E+00  0.8670E+00  0.7461E+01  0.7461E+01
     -4.553  0.7665E+00  0.7665E+00  0.7577E+01  0.7577E+01
     -4.411  0.6661E+00  0.6661E+00  0.7678E+01  0.7678E+01
     -4.269  0.5656E+00  0.5656E+00  0.7766E+01  0.7766E+01
     -4.127  0.4651E+00  0.4651E+00  0.7839E+01  0.7839E+01
     -3.985  0.3647E+00  0.3647E+00  0.7898E+01  0.7898E+01
     -3.843  0.1312E+01  0.1312E+01  0.8356E+01  0.8356E+01
     -3.700  0.1857E+01  0.1857E+01  0.9093E+01  0.9093E+01
     -3.558  0.1582E+01  0.1582E+01  0.9337E+01  0.9337E+01
     -3.416  0.1307E+01  0.1307E+01  0.9543E+01  0.9543E+01
     -3.274  0.1032E+01  0.1032E+01  0.9709E+01  0.9709E+01
     -3.132  0.7576E+00  0.7576E+00  0.9836E+01  0.9836E+01
     -2.990  0.4828E+00  0.4828E+00  0.9924E+01  0.9924E+01
     -2.848  0.0000E+00  0.0000E+00  0.1000E+02  0.1000E+02
     -2.706  0.2338E+01  0.2338E+01  0.1021E+02  0.1021E+02
     -2.564  0.0000E+00  0.0000E+00  0.1100E+02  0.1100E+02
     -2.422  0.0000E+00  0.0000E+00  0.1100E+02  0.1100E+02
     -2.280  0.0000E+00  0.0000E+00  0.1100E+02  0.1100E+02
     -2.138  0.9028E+01  0.9028E+01  0.1151E+02  0.1151E+02
     -1.995  0.3827E+01  0.3827E+01  0.1254E+02  0.1254E+02
     -1.853  0.0000E+00  0.0000E+00  0.1300E+02  0.1300E+02
     -1.711  0.0000E+00  0.0000E+00  0.1300E+02  0.1300E+02
     -1.569  0.0000E+00  0.0000E+00  0.1300E+02  0.1300E+02
     -1.427  0.0000E+00  0.0000E+00  0.1300E+02  0.1300E+02
     -1.285  0.0000E+00  0.0000E+00  0.1300E+02  0.1300E+02
     -1.143  0.0000E+00  0.0000E+00  0.1300E+02  0.1300E+02
     -1.001  0.0000E+00  0.0000E+00  0.1300E+02  0.1300E+02
     -0.859  0.0000E+00  0.0000E+00  0.1300E+02  0.1300E+02
     -0.717  0.0000E+00  0.0000E+00  0.1300E+02  0.1300E+02
     -0.575  0.0000E+00  0.0000E+00  0.1300E+02  0.1300E+02
     -0.433  0.0000E+00  0.0000E+00  0.1300E+02  0.1300E+02
     -0.290  0.0000E+00  0.0000E+00  0.1300E+02  0.1300E+02
     -0.148  0.0000E+00  0.0000E+00  0.1300E+02  0.1300E+02
     -0.006  0.0000E+00  0.0000E+00  0.1300E+02  0.1300E+02
      0.136  0.0000E+00  0.0000E+00  0.1300E+02  0.1300E+02
      0.278  0.0000E+00  0.0000E+00  0.1300E+02  0.1300E+02
      0.420  0.0000E+00  0.0000E+00  0.1300E+02  0.1300E+02
      0.562  0.0000E+00  0.0000E+00  0.1300E+02  0.1300E+02
      0.704  0.0000E+00  0.0000E+00  0.1300E+02  0.1300E+02
      0.846  0.0000E+00  0.0000E+00  0.1300E+02  0.1300E+02
      0.988  0.0000E+00  0.0000E+00  0.1300E+02  0.1300E+02
      1.130  0.0000E+00  0.0000E+00  0.1300E+02  0.1300E+02
      1.272  0.0000E+00  0.0000E+00  0.1300E+02  0.1300E+02
      1.414  0.0000E+00  0.0000E+00  0.1300E+02  0.1300E+02
      1.557  0.0000E+00  0.0000E+00  0.1300E+02  0.1300E+02
      1.699  0.0000E+00  0.0000E+00  0.1300E+02  0.1300E+02
      1.841  0.0000E+00  0.0000E+00  0.1300E+02  0.1300E+02
      1.983  0.0000E+00  0.0000E+00  0.1300E+02  0.1300E+02
      2.125  0.0000E+00  0.0000E+00  0.1300E+02  0.1300E+02
      2.267  0.0000E+00  0.0000E+00  0.1300E+02  0.1300E+02
      2.409  0.0000E+00  0.0000E+00  0.1300E+02  0.1300E+02
      2.551  0.0000E+00  0.0000E+00  0.1300E+02  0.1300E+02
      2.693  0.0000E+00  0.0000E+00  0.1300E+02  0.1300E+02
      2.835  0.0000E+00  0.0000E+00  0.1300E+02  0.1300E+02
      2.977  0.8780E-01  0.8780E-01  0.1303E+02  0.1303E+02
      3.119  0.1081E+00  0.1081E+00  0.1305E+02  0.1305E+02
      3.262  0.1284E+00  0.1284E+00  0.1307E+02  0.1307E+02
      3.404  0.1487E+00  0.1487E+00  0.1309E+02  0.1309E+02
      3.546  0.1690E+00  0.1690E+00  0.1311E+02  0.1311E+02
      3.688  0.1893E+00  0.1893E+00  0.1313E+02  0.1313E+02
      3.830  0.2096E+00  0.2096E+00  0.1316E+02  0.1316E+02
      3.972  0.2299E+00  0.2299E+00  0.1319E+02  0.1319E+02
      4.114  0.2502E+00  0.2502E+00  0.1323E+02  0.1323E+02
      4.256  0.2705E+00  0.2705E+00  0.1326E+02  0.1326E+02
      4.398  0.2908E+00  0.2908E+00  0.1330E+02  0.1330E+02
      4.540  0.3110E+00  0.3110E+00  0.1335E+02  0.1335E+02
      4.682  0.3313E+00  0.3313E+00  0.1339E+02  0.1339E+02
      4.824  0.3516E+00  0.3516E+00  0.1344E+02  0.1344E+02
      4.967  0.3719E+00  0.3719E+00  0.1349E+02  0.1349E+02
      5.109  0.3922E+00  0.3922E+00  0.1355E+02  0.1355E+02
      5.251  0.0000E+00  0.0000E+00  0.1400E+02  0.1400E+02
      5.393  0.0000E+00  0.0000E+00  0.1400E+02  0.1400E+02
      5.535  0.0000E+00  0.0000E+00  0.1400E+02  0.1400E+02
      5.677  0.0000E+00  0.0000E+00  0.1400E+02  0.1400E+02
      5.819  0.0000E+00  0.0000E+00  0.1400E+02  0.1400E+02
      5.961  0.0000E+00  0.0000E+00  0.1400E+02  0.1400E+02
      6.103  0.0000E+00  0.0000E+00  0.1400E+02  0.1400E+02
      6.245  0.0000E+00  0.0000E+00  0.1400E+02  0.1400E+02
      6.387  0.0000E+00  0.0000E+00  0.1400E+02  0.1400E+02
      6.529  0.0000E+00  0.0000E+00  0.1400E+02  0.1400E+02
      6.672  0.0000E+00  0.0000E+00  0.1400E+02  0.1400E+02
      6.814  0.0000E+00  0.0000E+00  0.1400E+02  0.1400E+02
      6.956  0.0000E+00  0.0000E+00  0.1400E+02  0.1400E+02
      7.098  0.0000E+00  0.0000E+00  0.1400E+02  0.1400E+02
      7.240  0.0000E+00  0.0000E+00  0.1400E+02  0.1400E+02
      7.382  0.0000E+00  0.0000E+00  0.1400E+02  0.1400E+02
      7.524  0.0000E+00  0.0000E+00  0.1400E+02  0.1400E+02
      7.666  0.0000E+00  0.0000E+00  0.1400E+02  0.1400E+02
      7.808  0.0000E+00  0.0000E+00  0.1400E+02  0.1400E+02
      7.950  0.0000E+00  0.0000E+00  0.1400E+02  0.1400E+02
      8.092  0.1033E+01  0.1033E+01  0.1451E+02  0.1451E+02
      8.234  0.8764E+00  0.8764E+00  0.1464E+02  0.1464E+02
      8.377  0.7196E+00  0.7196E+00  0.1476E+02  0.1476E+02
      8.519  0.5628E+00  0.5628E+00  0.1485E+02  0.1485E+02
      8.661  0.4060E+00  0.4060E+00  0.1492E+02  0.1492E+02
      8.803  0.2492E+00  0.2492E+00  0.1496E+02  0.1496E+02
      8.945  0.0000E+00  0.0000E+00  0.1500E+02  0.1500E+02
      9.087  0.0000E+00  0.0000E+00  0.1500E+02  0.1500E+02
      9.229  0.0000E+00  0.0000E+00  0.1500E+02  0.1500E+02
      9.371  0.0000E+00  0.0000E+00  0.1500E+02  0.1500E+02
      9.513  0.0000E+00  0.0000E+00  0.1500E+02  0.1500E+02
      9.655  0.0000E+00  0.0000E+00  0.1500E+02  0.1500E+02
      9.797  0.0000E+00  0.0000E+00  0.1500E+02  0.1500E+02
      9.939  0.0000E+00  0.0000E+00  0.1500E+02  0.1500E+02
     10.082  0.0000E+00  0.0000E+00  0.1500E+02  0.1500E+02
     10.224  0.0000E+00  0.0000E+00  0.1500E+02  0.1500E+02
     10.366  0.0000E+00  0.0000E+00  0.1500E+02  0.1500E+02
     10.508  0.0000E+00  0.0000E+00  0.1500E+02  0.1500E+02
     10.650  0.1114E+01  0.1114E+01  0.1545E+02  0.1545E+02
     10.792  0.9515E+00  0.9515E+00  0.1560E+02  0.1560E+02
     10.934  0.7896E+00  0.7896E+00  0.1572E+02  0.1572E+02
     11.076  0.6276E+00  0.6276E+00  0.1582E+02  0.1582E+02
     11.218  0.4656E+00  0.4656E+00  0.1590E+02  0.1590E+02
     11.360  0.3036E+00  0.3036E+00  0.1595E+02  0.1595E+02
     11.502  0.4029E+00  0.4029E+00  0.1606E+02  0.1606E+02
     11.644  0.6331E+00  0.6332E+00  0.1613E+02  0.1613E+02
     11.787  0.8634E+00  0.8634E+00  0.1624E+02  0.1624E+02
     11.929  0.1094E+01  0.1094E+01  0.1638E+02  0.1638E+02
     12.071  0.1324E+01  0.1324E+01  0.1655E+02  0.1655E+02
     12.213  0.0000E+00  0.0000E+00  0.1700E+02  0.1700E+02
     12.355  0.0000E+00  0.0000E+00  0.1700E+02  0.1700E+02
     12.497  0.0000E+00  0.0000E+00  0.1700E+02  0.1700E+02
     12.639  0.0000E+00  0.0000E+00  0.1700E+02  0.1700E+02
     12.781  0.2397E+00  0.2397E+00  0.1741E+02  0.1741E+02
     12.923  0.2327E+00  0.2327E+00  0.1744E+02  0.1744E+02
     13.065  0.2257E+00  0.2257E+00  0.1748E+02  0.1748E+02
     13.207  0.2187E+00  0.2187E+00  0.1751E+02  0.1751E+02
     13.349  0.2117E+00  0.2117E+00  0.1754E+02  0.1754E+02
     13.491  0.2047E+00  0.2047E+00  0.1757E+02  0.1757E+02
     13.634  0.1977E+00  0.1977E+00  0.1760E+02  0.1760E+02
     13.776  0.1907E+00  0.1907E+00  0.1762E+02  0.1762E+02
     13.918  0.1837E+00  0.1837E+00  0.1765E+02  0.1765E+02
     14.060  0.1767E+00  0.1767E+00  0.1768E+02  0.1768E+02
     14.202  0.1697E+00  0.1697E+00  0.1770E+02  0.1770E+02
     14.344  0.1627E+00  0.1627E+00  0.1772E+02  0.1772E+02
     14.486  0.1557E+00  0.1557E+00  0.1775E+02  0.1775E+02
     14.628  0.1487E+00  0.1487E+00  0.1777E+02  0.1777E+02
     14.770  0.1417E+00  0.1417E+00  0.1779E+02  0.1779E+02
     14.912  0.1347E+00  0.1347E+00  0.1781E+02  0.1781E+02
     15.054  0.1277E+00  0.1277E+00  0.1783E+02  0.1783E+02
     15.196  0.1207E+00  0.1207E+00  0.1784E+02  0.1784E+02
     15.339  0.1137E+00  0.1137E+00  0.1786E+02  0.1786E+02
     15.481  0.1067E+00  0.1067E+00  0.1788E+02  0.1788E+02
     15.623  0.9965E-01  0.9965E-01  0.1789E+02  0.1789E+02
     15.765  0.9265E-01  0.9265E-01  0.1791E+02  0.1791E+02
     15.907  0.8564E-01  0.8564E-01  0.1792E+02  0.1792E+02
     16.049  0.7864E-01  0.7864E-01  0.1793E+02  0.1793E+02
     16.191  0.7163E-01  0.7163E-01  0.1794E+02  0.1794E+02
     16.333  0.6463E-01  0.6463E-01  0.1795E+02  0.1795E+02
     16.475  0.5762E-01  0.5762E-01  0.1796E+02  0.1796E+02
     16.617  0.5062E-01  0.5062E-01  0.1797E+02  0.1797E+02
     16.759  0.0000E+00  0.0000E+00  0.1800E+02  0.1800E+02
     16.901  0.0000E+00  0.0000E+00  0.1800E+02  0.1800E+02
     17.044  0.0000E+00  0.0000E+00  0.1800E+02  0.1800E+02
     17.186  0.0000E+00  0.0000E+00  0.1800E+02  0.1800E+02
     17.328  0.0000E+00  0.0000E+00  0.1800E+02  0.1800E+02
     17.470  0.0000E+00  0.0000E+00  0.1800E+02  0.1800E+02
     17.612  0.0000E+00  0.0000E+00  0.1800E+02  0.1800E+02
     17.754  0.0000E+00  0.0000E+00  0.1800E+02  0.1800E+02
     17.896  0.0000E+00  0.0000E+00  0.1800E+02  0.1800E+02
     18.038  0.0000E+00  0.0000E+00  0.1800E+02  0.1800E+02
     18.180  0.0000E+00  0.0000E+00  0.1800E+02  0.1800E+02
     18.322  0.0000E+00  0.0000E+00  0.1800E+02  0.1800E+02
     18.464  0.0000E+00  0.0000E+00  0.1800E+02  0.1800E+02
     18.606  0.0000E+00  0.0000E+00  0.1800E+02  0.1800E+02
     18.60646532    -24.01825337  301     -1.92444085      1.00000000
    -24.018  0.0000E+00  0.0000E+00  0.0000E+00  0.0000E+00  0.0000E+00  0.0000E+00  0.0000E+00  0.0000E+00  0.0000E+00  0.0000E+00  0.0000E+00  0.0000E+00  0.0000E+00  0.0000E+00  0.0000E+00  0.0000E+00  0.0000E+00  0.0000E+00
    -23.876  0.0000E+00  0.0000E+00  0.0000E+00  0.0000E+00  0.0000E+00  0.0000E+00  0.0000E+00  0.0000E+00  0.0000E+00  0.0000E+00  0.0000E+00  0.0000E+00  0.0000E+00  0.0000E+00  0.0000E+00  0.0000E+00  0.0000E+00  0.0000E+00
    -23.734  0.0000E+00  0.0000E+00  0.0000E+00  0.0000E+00  0.0000E+00  0.0000E+00  0.0000E+00  0.0000E+00  0.0000E+00  0.0000E+00  0.0000E+00  0.0000E+00  0.0000E+00  0.0000E+00  0.0000E+00  0.0000E+00  0.0000E+00  0.0000E+00
    -23.592  0.0000E+00  0.0000E+00  0.0000E+00  0.0000E+00  0.0000E+00  0.0000E+00  0.0000E+00  0.0000E+00  0.0000E+00  0.0000E+00  0.0000E+00  0.0000E+00  0.0000E+00  0.0000E+00  0.0000E+00  0.0000E+00  0.0000E+00  0.0000E+00
    -23.450  0.0000E+00  0.0000E+00  0.0000E+00  0.0000E+00  0.0000E+00  0.0000E+00  0.0000E+00  0.0000E+00  0.0000E+00  0.0000E+00  0.0000E+00  0.0000E+00  0.0000E+00  0.0000E+00  0.0000E+00  0.0000E+00  0.0000E+00  0.0000E+00
    -23.308  0.0000E+00  0.0000E+00  0.0000E+00  0.0000E+00  0.0000E+00  0.0000E+00  0.0000E+00  0.0000E+00  0.0000E+00  0.0000E+00  0.0000E+00  0.0000E+00  0.0000E+00  0.0000E+00  0.0000E+00  0.0000E+00  0.0000E+00  0.0000E+00
    -23.166  0.0000E+00  0.0000E+00  0.0000E+00  0.0000E+00  0.0000E+00  0.0000E+00  0.0000E+00  0.0000E+00  0.0000E+00  0.0000E+00  0.0000E+00  0.0000E+00  0.0000E+00  0.0000E+00  0.0000E+00  0.0000E+00  0.0000E+00  0.0000E+00
    -23.024  0.0000E+00  0.0000E+00  0.0000E+00  0.0000E+00  0.0000E+00  0.0000E+00  0.0000E+00  0.0000E+00  0.0000E+00  0.0000E+00  0.0000E+00  0.0000E+00  0.0000E+00  0.0000E+00  0.0000E+00  0.0000E+00  0.0000E+00  0.0000E+00
    -22.882  0.0000E+00  0.0000E+00  0.0000E+00  0.0000E+00  0.0000E+00  0.0000E+00  0.0000E+00  0.0000E+00  0.0000E+00  0.0000E+00  0.0000E+00  0.0000E+00  0.0000E+00  0.0000E+00  0.0000E+00  0.0000E+00  0.0000E+00  0.0000E+00
    -22.740  0.0000E+00  0.0000E+00  0.0000E+00  0.0000E+00  0.0000E+00  0.0000E+00  0.0000E+00  0.0000E+00  0.0000E+00  0.0000E+00  0.0000E+00  0.0000E+00  0.0000E+00  0.0000E+00  0.0000E+00  0.0000E+00  0.0000E+00  0.0000E+00
    -22.597  0.0000E+00  0.0000E+00  0.0000E+00  0.0000E+00  0.0000E+00  0.0000E+00  0.0000E+00  0.0000E+00  0.0000E+00  0.0000E+00  0.0000E+00  0.0000E+00  0.0000E+00  0.0000E+00  0.0000E+00  0.0000E+00  0.0000E+00  0.0000E+00
    -22.455  0.0000E+00  0.0000E+00  0.0000E+00  0.0000E+00  0.0000E+00  0.0000E+00  0.0000E+00  0.0000E+00  0.0000E+00  0.0000E+00  0.0000E+00  0.0000E+00  0.0000E+00  0.0000E+00  0.0000E+00  0.0000E+00  0.0000E+00  0.0000E+00
    -22.313  0.0000E+00  0.0000E+00  0.0000E+00  0.0000E+00  0.0000E+00  0.0000E+00  0.0000E+00  0.0000E+00  0.0000E+00  0.0000E+00  0.0000E+00  0.0000E+00  0.0000E+00  0.0000E+00  0.0000E+00  0.0000E+00  0.0000E+00  0.0000E+00
    -22.171  0.0000E+00  0.0000E+00  0.0000E+00  0.0000E+00  0.0000E+00  0.0000E+00  0.0000E+00  0.0000E+00  0.0000E+00  0.0000E+00  0.0000E+00  0.0000E+00  0.0000E+00  0.0000E+00  0.0000E+00  0.0000E+00  0.0000E+00  0.0000E+00
    -22.029  0.8219E-02  0.8219E-02  0.1223E-02  0.1223E-02  0.1157E-02  0.1157E-02  0.1685E-02  0.1685E-02  0.2690E-03  0.2690E-03  0.1203E-03  0.1203E-03  0.3965E-03  0.3965E-03  0.2442E-03  0.2442E-03  0.5597E-03  0.5597E-03
    -21.887  0.1293E-01  0.1293E-01  0.3564E-02  0.3564E-02  0.3565E-02  0.3565E-02  0.3556E-02  0.3556E-02  0.6098E-03  0.6098E-03  0.4622E-03  0.4622E-03  0.1164E-02  0.1164E-02  0.9246E-03  0.9246E-03  0.1497E-02  0.1497E-02
    -21.745  0.0000E+00  0.0000E+00  0.0000E+00  0.0000E+00  0.0000E+00  0.0000E+00  0.0000E+00  0.0000E+00  0.0000E+00  0.0000E+00  0.0000E+00  0.0000E+00  0.0000E+00  0.0000E+00  0.0000E+00  0.0000E+00  0.0000E+00  0.0000E+00
    -21.603  0.6754E-03  0.6754E-03  0.1568E-02  0.1568E-02  0.1522E-02  0.1522E-02  0.1891E-02  0.1891E-02  0.2148E-02  0.2148E-02  0.2282E-02  0.2282E-02  0.5023E-02  0.5023E-02  0.4571E-02  0.4571E-02  0.6074E-02  0.6074E-02
    -21.461  0.1713E-03  0.1713E-03  0.3590E-03  0.3590E-03  0.3085E-03  0.3085E-03  0.7122E-03  0.7121E-03  0.8947E-03  0.8947E-03  0.6025E-03  0.6025E-03  0.1603E-02  0.1602E-02  0.1207E-02  0.1207E-02  0.2105E-02  0.2105E-02
    -21.319  0.0000E+00  0.0000E+00  0.0000E+00  0.0000E+00  0.0000E+00  0.0000E+00  0.0000E+00  0.0000E+00  0.0000E+00  0.0000E+00  0.0000E+00  0.0000E+00  0.0000E+00  0.0000E+00  0.0000E+00  0.0000E+00  0.0000E+00  0.0000E+00
    -21.177  0.0000E+00  0.0000E+00  0.0000E+00  0.0000E+00  0.0000E+00  0.0000E+00  0.0000E+00  0.0000E+00  0.0000E+00  0.0000E+00  0.0000E+00  0.0000E+00  0.0000E+00  0.0000E+00  0.0000E+00  0.0000E+00  0.0000E+00  0.0000E+00
    -21.035  0.0000E+00  0.0000E+00  0.0000E+00  0.0000E+00  0.0000E+00  0.0000E+00  0.0000E+00  0.0000E+00  0.0000E+00  0.0000E+00  0.0000E+00  0.0000E+00  0.0000E+00  0.0000E+00  0.0000E+00  0.0000E+00  0.0000E+00  0.0000E+00
    -20.892  0.0000E+00  0.0000E+00  0.0000E+00  0.0000E+00  0.0000E+00  0.0000E+00  0.0000E+00  0.0000E+00  0.0000E+00  0.0000E+00  0.0000E+00  0.0000E+00  0.0000E+00  0.0000E+00  0.0000E+00  0.0000E+00  0.0000E+00  0.0000E+00
    -20.750  0.0000E+00  0.0000E+00  0.0000E+00  0.0000E+00  0.0000E+00  0.0000E+00  0.0000E+00  0.0000E+00  0.0000E+00  0.0000E+00  0.0000E+00  0.0000E+00  0.0000E+00  0.0000E+00  0.0000E+00  0.0000E+00  0.0000E+00  0.0000E+00
    -20.608  0.0000E+00  0.0000E+00  0.0000E+00  0.0000E+00  0.0000E+00  0.0000E+00  0.0000E+00  0.0000E+00  0.0000E+00  0.0000E+00  0.0000E+00  0.0000E+00  0.0000E+00  0.0000E+00  0.0000E+00  0.0000E+00  0.0000E+00  0.0000E+00
    -20.466  0.0000E+00  0.0000E+00  0.0000E+00  0.0000E+00  0.0000E+00  0.0000E+00  0.0000E+00  0.0000E+00  0.0000E+00  0.0000E+00  0.0000E+00  0.0000E+00  0.0000E+00  0.0000E+00  0.0000E+00  0.0000E+00  0.0000E+00  0.0000E+00
    -20.324  0.0000E+00  0.0000E+00  0.0000E+00  0.0000E+00  0.0000E+00  0.0000E+00  0.0000E+00  0.0000E+00  0.0000E+00  0.0000E+00  0.0000E+00  0.0000E+00  0.0000E+00  0.0000E+00  0.0000E+00  0.0000E+00  0.0000E+00  0.0000E+00
    -20.182  0.0000E+00  0.0000E+00  0.0000E+00  0.0000E+00  0.0000E+00  0.0000E+00  0.0000E+00  0.0000E+00  0.0000E+00  0.0000E+00  0.0000E+00  0.0000E+00  0.0000E+00  0.0000E+00  0.0000E+00  0.0000E+00  0.0000E+00  0.0000E+00
    -20.040  0.0000E+00  0.0000E+00  0.0000E+00  0.0000E+00  0.0000E+00  0.0000E+00  0.0000E+00  0.0000E+00  0.0000E+00  0.0000E+00  0.0000E+00  0.0000E+00  0.0000E+00  0.0000E+00  0.0000E+00  0.0000E+00  0.0000E+00  0.0000E+00
    -19.898  0.0000E+00  0.0000E+00  0.0000E+00  0.0000E+00  0.0000E+00  0.0000E+00  0.0000E+00  0.0000E+00  0.0000E+00  0.0000E+00  0.0000E+00  0.0000E+00  0.0000E+00  0.0000E+00  0.0000E+00  0.0000E+00  0.0000E+00  0.0000E+00
    -19.756  0.0000E+00  0.0000E+00  0.0000E+00  0.0000E+00  0.0000E+00  0.0000E+00  0.0000E+00  0.0000E+00  0.0000E+00  0.0000E+00  0.0000E+00  0.0000E+00  0.0000E+00  0.0000E+00  0.0000E+00  0.0000E+00  0.0000E+00  0.0000E+00
    -19.614  0.0000E+00  0.0000E+00  0.0000E+00  0.0000E+00  0.0000E+00  0.0000E+00  0.0000E+00  0.0000E+00  0.0000E+00  0.0000E+00  0.0000E+00  0.0000E+00  0.0000E+00  0.0000E+00  0.0000E+00  0.0000E+00  0.0000E+00  0.0000E+00
    -19.472  0.0000E+00  0.0000E+00  0.0000E+00  0.0000E+00  0.0000E+00  0.0000E+00  0.0000E+00  0.0000E+00  0.0000E+00  0.0000E+00  0.0000E+00  0.0000E+00  0.0000E+00  0.0000E+00  0.0000E+00  0.0000E+00  0.0000E+00  0.0000E+00
    -19.330  0.0000E+00  0.0000E+00  0.0000E+00  0.0000E+00  0.0000E+00  0.0000E+00  0.0000E+00  0.0000E+00  0.0000E+00  0.0000E+00  0.0000E+00  0.0000E+00  0.0000E+00  0.0000E+00  0.0000E+00  0.0000E+00  0.0000E+00  0.0000E+00
    -19.187  0.0000E+00  0.0000E+00  0.0000E+00  0.0000E+00  0.0000E+00  0.0000E+00  0.0000E+00  0.0000E+00  0.0000E+00  0.0000E+00  0.0000E+00  0.0000E+00  0.0000E+00  0.0000E+00  0.0000E+00  0.0000E+00  0.0000E+00  0.0000E+00
    -19.045  0.0000E+00  0.0000E+00  0.0000E+00  0.0000E+00  0.0000E+00  0.0000E+00  0.0000E+00  0.0000E+00  0.0000E+00  0.0000E+00  0.0000E+00  0.0000E+00  0.0000E+00  0.0000E+00  0.0000E+00  0.0000E+00  0.0000E+00  0.0000E+00
    -18.903  0.0000E+00  0.0000E+00  0.0000E+00  0.0000E+00  0.0000E+00  0.0000E+00  0.0000E+00  0.0000E+00  0.0000E+00  0.0000E+00  0.0000E+00  0.0000E+00  0.0000E+00  0.0000E+00  0.0000E+00  0.0000E+00  0.0000E+00  0.0000E+00
    -18.761  0.0000E+00  0.0000E+00  0.0000E+00  0.0000E+00  0.0000E+00  0.0000E+00  0.0000E+00  0.0000E+00  0.0000E+00  0.0000E+00  0.0000E+00  0.0000E+00  0.0000E+00  0.0000E+00  0.0000E+00  0.0000E+00  0.0000E+00  0.0000E+00
    -18.619  0.0000E+00  0.0000E+00  0.0000E+00  0.0000E+00  0.0000E+00  0.0000E+00  0.0000E+00  0.0000E+00  0.0000E+00  0.0000E+00  0.0000E+00  0.0000E+00  0.0000E+00  0.0000E+00  0.0000E+00  0.0000E+00  0.0000E+00  0.0000E+00
    -18.477  0.0000E+00  0.0000E+00  0.0000E+00  0.0000E+00  0.0000E+00  0.0000E+00  0.0000E+00  0.0000E+00  0.0000E+00  0.0000E+00  0.0000E+00  0.0000E+00  0.0000E+00  0.0000E+00  0.0000E+00  0.0000E+00  0.0000E+00  0.0000E+00
    -18.335  0.0000E+00  0.0000E+00  0.0000E+00  0.0000E+00  0.0000E+00  0.0000E+00  0.0000E+00  0.0000E+00  0.0000E+00  0.0000E+00  0.0000E+00  0.0000E+00  0.0000E+00  0.0000E+00  0.0000E+00  0.0000E+00  0.0000E+00  0.0000E+00
    -18.193  0.0000E+00  0.0000E+00  0.0000E+00  0.0000E+00  0.0000E+00  0.0000E+00  0.0000E+00  0.0000E+00  0.0000E+00  0.0000E+00  0.0000E+00  0.0000E+00  0.0000E+00  0.0000E+00  0.0000E+00  0.0000E+00  0.0000E+00  0.0000E+00
    -18.051  0.0000E+00  0.0000E+00  0.0000E+00  0.0000E+00  0.0000E+00  0.0000E+00  0.0000E+00  0.0000E+00  0.0000E+00  0.0000E+00  0.0000E+00  0.0000E+00  0.0000E+00  0.0000E+00  0.0000E+00  0.0000E+00  0.0000E+00  0.0000E+00
    -17.909  0.0000E+00  0.0000E+00  0.0000E+00  0.0000E+00  0.0000E+00  0.0000E+00  0.0000E+00  0.0000E+00  0.0000E+00  0.0000E+00  0.0000E+00  0.0000E+00  0.0000E+00  0.0000E+00  0.0000E+00  0.0000E+00  0.0000E+00  0.0000E+00
    -17.767  0.0000E+00  0.0000E+00  0.0000E+00  0.0000E+00  0.0000E+00  0.0000E+00  0.0000E+00  0.0000E+00  0.0000E+00  0.0000E+00  0.0000E+00  0.0000E+00  0.0000E+00  0.0000E+00  0.0000E+00  0.0000E+00  0.0000E+00  0.0000E+00
    -17.625  0.0000E+00  0.0000E+00  0.0000E+00  0.0000E+00  0.0000E+00  0.0000E+00  0.0000E+00  0.0000E+00  0.0000E+00  0.0000E+00  0.0000E+00  0.0000E+00  0.0000E+00  0.0000E+00  0.0000E+00  0.0000E+00  0.0000E+00  0.0000E+00
    -17.482  0.0000E+00  0.0000E+00  0.0000E+00  0.0000E+00  0.0000E+00  0.0000E+00  0.0000E+00  0.0000E+00  0.0000E+00  0.0000E+00  0.0000E+00  0.0000E+00  0.0000E+00  0.0000E+00  0.0000E+00  0.0000E+00  0.0000E+00  0.0000E+00
    -17.340  0.0000E+00  0.0000E+00  0.0000E+00  0.0000E+00  0.0000E+00  0.0000E+00  0.0000E+00  0.0000E+00  0.0000E+00  0.0000E+00  0.0000E+00  0.0000E+00  0.0000E+00  0.0000E+00  0.0000E+00  0.0000E+00  0.0000E+00  0.0000E+00
    -17.198  0.0000E+00  0.0000E+00  0.0000E+00  0.0000E+00  0.0000E+00  0.0000E+00  0.0000E+00  0.0000E+00  0.0000E+00  0.0000E+00  0.0000E+00  0.0000E+00  0.0000E+00  0.0000E+00  0.0000E+00  0.0000E+00  0.0000E+00  0.0000E+00
    -17.056  0.0000E+00  0.0000E+00  0.0000E+00  0.0000E+00  0.0000E+00  0.0000E+00  0.0000E+00  0.0000E+00  0.0000E+00  0.0000E+00  0.0000E+00  0.0000E+00  0.0000E+00  0.0000E+00  0.0000E+00  0.0000E+00  0.0000E+00  0.0000E+00
    -16.914  0.0000E+00  0.0000E+00  0.0000E+00  0.0000E+00  0.0000E+00  0.0000E+00  0.0000E+00  0.0000E+00  0.0000E+00  0.0000E+00  0.0000E+00  0.0000E+00  0.0000E+00  0.0000E+00  0.0000E+00  0.0000E+00  0.0000E+00  0.0000E+00