PROCAR lm decomposed
# of k-points:   16         # of bands:  18         # of ions:   3

 k-point    1 :    0.25000000 0.25000000 0.25000000     weight = 0.06250000

band   1 # energy  -22.08076598 # occ.  1.00000000
 
ion      s     py     pz     px    dxy    dyz    dz2    dxz    dx2    tot
  1  0.010  0.000  0.001  0.000  0.000  0.000  0.000  0.000  0.000  0.012
  2  0.416  0.000  0.000  0.000  0.000  0.000  0.000  0.000  0.000  0.416
  3  0.416  0.000  0.000  0.000  0.000  0.000  0.000  0.000  0.000  0.416
tot  0.842  0.000  0.001  0.000  0.000  0.000  0.000  0.000  0.000  0.845
 
band   2 # energy  -21.42677874 # occ.  1.00000000
 
ion      s     py     pz     px    dxy    dyz    dz2    dxz    dx2    tot
  1  0.000  0.000  0.000  0.000  0.000  0.001  0.001  0.001  0.000  0.004
  2  0.439  0.000  0.000  0.000  0.000  0.000  0.000  0.000  0.000  0.439
  3  0.439  0.000  0.000  0.000  0.000  0.000  0.000  0.000  0.000  0.439
tot  0.878  0.000  0.000  0.000  0.000  0.001  0.001  0.001  0.000  0.882
 
band   3 # energy   -7.02907352 # occ.  1.00000000
 
ion      s     py     pz     px    dxy    dyz    dz2    dxz    dx2    tot
  1  0.000  0.000  0.000  0.000  0.115  0.027  0.004  0.002  0.599  0.747
  2  0.000  0.038  0.000  0.029  0.000  0.000  0.000  0.000  0.000  0.068
  3  0.000  0.038  0.000  0.029  0.000  0.000  0.000  0.000  0.000  0.068
tot  0.000  0.077  0.001  0.059  0.115  0.027  0.004  0.002  0.599  0.884
 
band   4 # energy   -7.02907171 # occ.  1.00000000
 
ion      s     py     pz     px    dxy    dyz    dz2    dxz    dx2    tot
  1  0.000  0.000  0.000  0.000  0.174  0.070  0.267  0.167  0.069  0.747
  2  0.000  0.022  0.022  0.024  0.000  0.000  0.000  0.000  0.000  0.068
  3  0.000  0.022  0.022  0.024  0.000  0.000  0.000  0.000  0.000  0.068
tot  0.000  0.045  0.045  0.047  0.174  0.070  0.267  0.167  0.069  0.884
 
band   5 # energy   -6.67598839 # occ.  1.00000000
 
ion      s     py     pz     px    dxy    dyz    dz2    dxz    dx2    tot
  1  0.000  0.000  0.001  0.000  0.058  0.173  0.195  0.346  0.007  0.780
  2  0.004  0.006  0.038  0.013  0.000  0.000  0.000  0.000  0.000  0.060
  3  0.004  0.006  0.038  0.013  0.000  0.000  0.000  0.000  0.000  0.060
tot  0.007  0.013  0.077  0.026  0.058  0.173  0.195  0.346  0.007  0.901
 
band   6 # energy   -6.24192022 # occ.  1.00000000
 
ion      s     py     pz     px    dxy    dyz    dz2    dxz    dx2    tot
  1  0.000  0.000  0.000  0.000  0.002  0.586  0.007  0.311  0.037  0.943
  2  0.000  0.002  0.000  0.002  0.000  0.000  0.000  0.000  0.000  0.004
  3  0.000  0.002  0.000  0.002  0.000  0.000  0.000  0.000  0.000  0.004
tot  0.000  0.005  0.000  0.004  0.002  0.586  0.007  0.311  0.037  0.951
 
band   7 # energy   -6.24191763 # occ.  1.00000000
 
ion      s     py     pz     px    dxy    dyz    dz2    dxz    dx2    tot
  1  0.000  0.000  0.000  0.000  0.513  0.027  0.351  0.000  0.052  0.943
  2  0.000  0.001  0.001  0.001  0.000  0.000  0.000  0.000  0.000  0.004
  3  0.000  0.001  0.001  0.001  0.000  0.000  0.000  0.000  0.000  0.004
tot  0.000  0.003  0.003  0.003  0.513  0.027  0.351  0.000  0.052  0.951
 
band   8 # energy   -3.72637464 # occ.  1.00000000
 
ion      s     py     pz     px    dxy    dyz    dz2    dxz    dx2    tot
  1  0.070  0.001  0.007  0.002  0.002  0.005  0.006  0.010  0.000  0.104
  2  0.005  0.035  0.211  0.070  0.000  0.000  0.000  0.000  0.000  0.321
  3  0.005  0.035  0.211  0.070  0.000  0.000  0.000  0.000  0.000  0.321
tot  0.079  0.071  0.429  0.143  0.002  0.005  0.006  0.010  0.000  0.746
 
band   9 # energy   -2.96062932 # occ.  1.00000000
 
ion      s     py     pz     px    dxy    dyz    dz2    dxz    dx2    tot
  1  0.000  0.016  0.000  0.005  0.005  0.005  0.000  0.001  0.041  0.074
  2  0.000  0.268  0.001  0.094  0.000  0.000  0.000  0.000  0.000  0.363
  3  0.000  0.268  0.001  0.094  0.000  0.000  0.000  0.000  0.000  0.363
tot  0.000  0.551  0.002  0.193  0.005  0.005  0.000  0.001  0.041  0.800
 
band  10 # energy   -2.96062807 # occ.  1.00000000
 
ion      s     py     pz     px    dxy    dyz    dz2    dxz    dx2    tot
  1  0.000  0.003  0.007  0.011  0.001  0.004  0.037  0.011  0.000  0.074
  2  0.000  0.055  0.120  0.188  0.000  0.000  0.000  0.000  0.000  0.363
  3  0.000  0.055  0.120  0.188  0.000  0.000  0.000  0.000  0.000  0.363
tot  0.000  0.112  0.246  0.388  0.001  0.004  0.037  0.011  0.000  0.800
 
band  11 # energy   -2.81790112 # occ.  1.00000000
 
ion      s     py     pz     px    dxy    dyz    dz2    dxz    dx2    tot
  1  0.016  0.001  0.006  0.002  0.012  0.037  0.042  0.074  0.002  0.191
  2  0.005  0.033  0.198  0.066  0.000  0.000  0.000  0.000  0.000  0.302
  3  0.005  0.033  0.198  0.066  0.000  0.000  0.000  0.000  0.000  0.302
tot  0.025  0.067  0.402  0.134  0.012  0.037  0.042  0.074  0.002  0.795
 
band  12 # energy   -2.21355271 # occ.  1.00000000
 
ion      s     py     pz     px    dxy    dyz    dz2    dxz    dx2    tot
  1  0.000  0.000  0.000  0.000  0.014  0.006  0.001  0.007  0.169  0.196
  2  0.000  0.242  0.001  0.086  0.000  0.000  0.000  0.000  0.000  0.329
  3  0.000  0.242  0.001  0.086  0.000  0.000  0.000  0.000  0.000  0.329
tot  0.000  0.484  0.002  0.173  0.014  0.006  0.001  0.007  0.169  0.854
 
band  13 # energy   -2.21355085 # occ.  1.00000000
 
ion      s     py     pz     px    dxy    dyz    dz2    dxz    dx2    tot
  1  0.000  0.000  0.000  0.000  0.071  0.023  0.061  0.038  0.003  0.196
  2  0.000  0.051  0.109  0.170  0.000  0.000  0.000  0.000  0.000  0.329
  3  0.000  0.051  0.109  0.170  0.000  0.000  0.000  0.000  0.000  0.329
tot  0.000  0.101  0.217  0.339  0.071  0.023  0.061  0.038  0.003  0.854
 
band  14 # energy    2.93560571 # occ.  0.00000000
 
ion      s     py     pz     px    dxy    dyz    dz2    dxz    dx2    tot
  1  0.336  0.002  0.009  0.003  0.000  0.000  0.000  0.001  0.000  0.352
  2  0.037  0.011  0.064  0.021  0.000  0.000  0.000  0.000  0.000  0.133
  3  0.037  0.011  0.064  0.021  0.000  0.000  0.000  0.000  0.000  0.133
tot  0.410  0.023  0.138  0.046  0.000  0.000  0.000  0.001  0.000  0.619
 
band  15 # energy    8.82249967 # occ.  0.00000000
 
ion      s     py     pz     px    dxy    dyz    dz2    dxz    dx2    tot
  1  0.103  0.021  0.126  0.042  0.000  0.000  0.000  0.000  0.000  0.293
  2  0.004  0.006  0.033  0.011  0.000  0.000  0.000  0.000  0.000  0.054
  3  0.004  0.006  0.033  0.011  0.000  0.000  0.000  0.000  0.000  0.054
tot  0.112  0.032  0.193  0.064  0.000  0.000  0.000  0.000  0.000  0.402
 
band  16 # energy   11.42379807 # occ.  0.00000000
 
ion      s     py     pz     px    dxy    dyz    dz2    dxz    dx2    tot
  1  0.000  0.310  0.004  0.079  0.000  0.001  0.000  0.001  0.000  0.395
  2  0.000  0.020  0.000  0.005  0.000  0.000  0.000  0.000  0.000  0.026
  3  0.000  0.020  0.000  0.005  0.000  0.000  0.000  0.000  0.000  0.026
tot  0.000  0.350  0.005  0.089  0.000  0.001  0.000  0.001  0.000  0.446
 
band  17 # energy   11.42380170 # occ.  0.00000000
 
ion      s     py     pz     px    dxy    dyz    dz2    dxz    dx2    tot
  1  0.000  0.040  0.127  0.227  0.001  0.000  0.001  0.000  0.000  0.395
  2  0.000  0.003  0.008  0.015  0.000  0.000  0.000  0.000  0.000  0.026
  3  0.000  0.003  0.008  0.015  0.000  0.000  0.000  0.000  0.000  0.026
tot  0.000  0.045  0.143  0.256  0.001  0.000  0.001  0.000  0.000  0.446
 
band  18 # energy   16.66897387 # occ.  0.00000000
 
ion      s     py     pz     px    dxy    dyz    dz2    dxz    dx2    tot
  1  0.000  0.010  0.006  0.005  0.114  0.007  0.030  0.007  0.017  0.196
  2  0.000  0.016  0.011  0.008  0.000  0.000  0.000  0.000  0.000  0.036
  3  0.000  0.016  0.011  0.008  0.000  0.000  0.000  0.000  0.000  0.036
tot  0.000  0.043  0.028  0.021  0.114  0.007  0.030  0.007  0.017  0.267
 

 k-point    2 :    0.25000000 0.00000000 0.00000000     weight = 0.06250000

band   1 # energy  -22.08076600 # occ.  1.00000000
 
ion      s     py     pz     px    dxy    dyz    dz2    dxz    dx2    tot
  1  0.010  0.000  0.000  0.002  0.000  0.000  0.000  0.000  0.000  0.012
  2  0.416  0.000  0.000  0.000  0.000  0.000  0.000  0.000  0.000  0.416
  3  0.416  0.000  0.000  0.000  0.000  0.000  0.000  0.000  0.000  0.416
tot  0.842  0.000  0.000  0.002  0.000  0.000  0.000  0.000  0.000  0.845
 
band   2 # energy  -21.42677872 # occ.  1.00000000
 
ion      s     py     pz     px    dxy    dyz    dz2    dxz    dx2    tot
  1  0.000  0.000  0.000  0.000  0.001  0.000  0.001  0.000  0.001  0.004
  2  0.439  0.000  0.000  0.000  0.000  0.000  0.000  0.000  0.000  0.439
  3  0.439  0.000  0.000  0.000  0.000  0.000  0.000  0.000  0.000  0.439
tot  0.878  0.000  0.000  0.001  0.001  0.000  0.001  0.000  0.001  0.882
 
band   3 # energy   -7.02907443 # occ.  1.00000000
 
ion      s     py     pz     px    dxy    dyz    dz2    dxz    dx2    tot
  1  0.000  0.000  0.000  0.000  0.000  0.263  0.147  0.247  0.090  0.747
  2  0.000  0.019  0.046  0.002  0.000  0.000  0.000  0.000  0.000  0.068
  3  0.000  0.019  0.046  0.002  0.000  0.000  0.000  0.000  0.000  0.068
tot  0.000  0.039  0.093  0.005  0.000  0.263  0.147  0.247  0.090  0.884
 
band   4 # energy   -7.02907239 # occ.  1.00000000
 
ion      s     py     pz     px    dxy    dyz    dz2    dxz    dx2    tot
  1  0.000  0.000  0.000  0.000  0.001  0.122  0.316  0.115  0.193  0.747
  2  0.000  0.041  0.022  0.005  0.000  0.000  0.000  0.000  0.000  0.068
  3  0.000  0.041  0.022  0.005  0.000  0.000  0.000  0.000  0.000  0.068
tot  0.000  0.083  0.043  0.010  0.001  0.122  0.316  0.115  0.193  0.884
 
band   5 # energy   -6.67598732 # occ.  1.00000000
 
ion      s     py     pz     px    dxy    dyz    dz2    dxz    dx2    tot
  1  0.000  0.000  0.000  0.001  0.231  0.000  0.195  0.000  0.353  0.780
  2  0.004  0.006  0.000  0.050  0.000  0.000  0.000  0.000  0.000  0.060
  3  0.004  0.006  0.000  0.050  0.000  0.000  0.000  0.000  0.000  0.060
tot  0.007  0.013  0.000  0.102  0.231  0.000  0.195  0.000  0.353  0.901
 
band   6 # energy   -6.24192047 # occ.  1.00000000
 
ion      s     py     pz     px    dxy    dyz    dz2    dxz    dx2    tot
  1  0.000  0.000  0.000  0.000  0.017  0.454  0.003  0.465  0.004  0.943
  2  0.000  0.000  0.004  0.000  0.000  0.000  0.000  0.000  0.000  0.004
  3  0.000  0.000  0.004  0.000  0.000  0.000  0.000  0.000  0.000  0.004
tot  0.000  0.000  0.008  0.000  0.017  0.454  0.003  0.465  0.004  0.951
 
band   7 # energy   -6.24191715 # occ.  1.00000000
 
ion      s     py     pz     px    dxy    dyz    dz2    dxz    dx2    tot
  1  0.000  0.000  0.000  0.000  0.645  0.012  0.125  0.012  0.149  0.943
  2  0.000  0.003  0.000  0.000  0.000  0.000  0.000  0.000  0.000  0.004
  3  0.000  0.003  0.000  0.000  0.000  0.000  0.000  0.000  0.000  0.004
tot  0.000  0.007  0.000  0.001  0.645  0.012  0.125  0.012  0.149  0.951
 
band   8 # energy   -3.72637050 # occ.  1.00000000
 
ion      s     py     pz     px    dxy    dyz    dz2    dxz    dx2    tot
  1  0.070  0.001  0.000  0.009  0.007  0.000  0.006  0.000  0.011  0.104
  2  0.005  0.035  0.000  0.281  0.000  0.000  0.000  0.000  0.000  0.321
  3  0.005  0.035  0.000  0.281  0.000  0.000  0.000  0.000  0.000  0.321
tot  0.079  0.071  0.000  0.572  0.007  0.000  0.006  0.000  0.011  0.746
 
band   9 # energy   -2.96063278 # occ.  1.00000000
 
ion      s     py     pz     px    dxy    dyz    dz2    dxz    dx2    tot
  1  0.000  0.004  0.016  0.001  0.003  0.003  0.003  0.039  0.007  0.074
  2  0.000  0.074  0.280  0.009  0.000  0.000  0.000  0.000  0.000  0.363
  3  0.000  0.074  0.280  0.009  0.000  0.000  0.000  0.000  0.000  0.363
tot  0.000  0.152  0.575  0.019  0.003  0.003  0.003  0.039  0.007  0.800
 
band  10 # energy   -2.96062823 # occ.  1.00000000
 
ion      s     py     pz     px    dxy    dyz    dz2    dxz    dx2    tot
  1  0.000  0.014  0.005  0.002  0.009  0.001  0.010  0.011  0.022  0.074
  2  0.000  0.249  0.083  0.031  0.000  0.000  0.000  0.000  0.000  0.363
  3  0.000  0.249  0.083  0.031  0.000  0.000  0.000  0.000  0.000  0.363
tot  0.000  0.512  0.171  0.064  0.009  0.001  0.010  0.011  0.022  0.800
 
band  11 # energy   -2.81789873 # occ.  1.00000000
 
ion      s     py     pz     px    dxy    dyz    dz2    dxz    dx2    tot
  1  0.016  0.001  0.000  0.007  0.050  0.000  0.042  0.000  0.076  0.191
  2  0.005  0.033  0.000  0.264  0.000  0.000  0.000  0.000  0.000  0.302
  3  0.005  0.033  0.000  0.264  0.000  0.000  0.000  0.000  0.000  0.302
tot  0.025  0.067  0.000  0.536  0.050  0.000  0.042  0.000  0.076  0.795
 
band  12 # energy   -2.21355555 # occ.  1.00000000
 
ion      s     py     pz     px    dxy    dyz    dz2    dxz    dx2    tot
  1  0.000  0.000  0.000  0.000  0.000  0.083  0.034  0.061  0.018  0.196
  2  0.000  0.077  0.242  0.010  0.000  0.000  0.000  0.000  0.000  0.329
  3  0.000  0.077  0.242  0.010  0.000  0.000  0.000  0.000  0.000  0.329
tot  0.000  0.155  0.484  0.019  0.000  0.083  0.034  0.061  0.018  0.854
 
band  13 # energy   -2.21355172 # occ.  1.00000000
 
ion      s     py     pz     px    dxy    dyz    dz2    dxz    dx2    tot
  1  0.000  0.000  0.000  0.000  0.000  0.030  0.094  0.022  0.050  0.196
  2  0.000  0.215  0.087  0.027  0.000  0.000  0.000  0.000  0.000  0.329
  3  0.000  0.215  0.087  0.027  0.000  0.000  0.000  0.000  0.000  0.329
tot  0.000  0.430  0.174  0.054  0.000  0.030  0.094  0.022  0.050  0.854
 
band  14 # energy    2.93560669 # occ.  0.00000000
 
ion      s     py     pz     px    dxy    dyz    dz2    dxz    dx2    tot
  1  0.336  0.002  0.000  0.012  0.001  0.000  0.000  0.000  0.001  0.352
  2  0.037  0.011  0.000  0.086  0.000  0.000  0.000  0.000  0.000  0.133
  3  0.037  0.011  0.000  0.086  0.000  0.000  0.000  0.000  0.000  0.133
tot  0.410  0.023  0.000  0.183  0.001  0.000  0.000  0.000  0.001  0.619
 
band  15 # energy    8.82250091 # occ.  0.00000000
 
ion      s     py     pz     px    dxy    dyz    dz2    dxz    dx2    tot
  1  0.103  0.021  0.000  0.169  0.000  0.000  0.000  0.000  0.000  0.293
  2  0.004  0.006  0.000  0.045  0.000  0.000  0.000  0.000  0.000  0.054
  3  0.004  0.006  0.000  0.045  0.000  0.000  0.000  0.000  0.000  0.054
tot  0.112  0.032  0.000  0.258  0.000  0.000  0.000  0.000  0.000  0.402
 
band  16 # energy   11.42379814 # occ.  0.00000000
 
ion      s     py     pz     px    dxy    dyz    dz2    dxz    dx2    tot
  1  0.000  0.011  0.381  0.001  0.000  0.001  0.000  0.001  0.000  0.395
  2  0.000  0.001  0.025  0.000  0.000  0.000  0.000  0.000  0.000  0.026
  3  0.000  0.001  0.025  0.000  0.000  0.000  0.000  0.000  0.000  0.026
tot  0.000  0.012  0.430  0.002  0.000  0.001  0.000  0.001  0.000  0.446
 
band  17 # energy   11.42380174 # occ.  0.00000000
 
ion      s     py     pz     px    dxy    dyz    dz2    dxz    dx2    tot
  1  0.000  0.338  0.012  0.042  0.001  0.000  0.000  0.000  0.000  0.395
  2  0.000  0.022  0.001  0.003  0.000  0.000  0.000  0.000  0.000  0.026
  3  0.000  0.022  0.001  0.003  0.000  0.000  0.000  0.000  0.000  0.026
tot  0.000  0.382  0.014  0.048  0.001  0.000  0.000  0.000  0.000  0.446
 
band  18 # energy   16.66897454 # occ.  0.00000000
 
ion      s     py     pz     px    dxy    dyz    dz2    dxz    dx2    tot
  1  0.000  0.017  0.002  0.002  0.101  0.011  0.051  0.003  0.008  0.196
  2  0.000  0.029  0.003  0.004  0.000  0.000  0.000  0.000  0.000  0.036
  3  0.000  0.029  0.003  0.004  0.000  0.000  0.000  0.000  0.000  0.036
tot  0.000  0.075  0.007  0.009  0.101  0.011  0.051  0.003  0.008  0.267
 

 k-point    3 :    0.00000000-0.00000000-0.25000000     weight = 0.06250000

band   1 # energy  -22.08076600 # occ.  1.00000000
 
ion      s     py     pz     px    dxy    dyz    dz2    dxz    dx2    tot
  1  0.010  0.000  0.001  0.000  0.000  0.000  0.000  0.000  0.000  0.012
  2  0.416  0.000  0.000  0.000  0.000  0.000  0.000  0.000  0.000  0.416
  3  0.416  0.000  0.000  0.000  0.000  0.000  0.000  0.000  0.000  0.416
tot  0.842  0.000  0.001  0.000  0.000  0.000  0.000  0.000  0.000  0.845
 
band   2 # energy  -21.42677872 # occ.  1.00000000
 
ion      s     py     pz     px    dxy    dyz    dz2    dxz    dx2    tot
  1  0.000  0.000  0.000  0.000  0.000  0.001  0.001  0.001  0.000  0.004
  2  0.439  0.000  0.000  0.000  0.000  0.000  0.000  0.000  0.000  0.439
  3  0.439  0.000  0.000  0.000  0.000  0.000  0.000  0.000  0.000  0.439
tot  0.878  0.000  0.000  0.000  0.000  0.001  0.001  0.001  0.000  0.882
 
band   3 # energy   -7.02907392 # occ.  1.00000000
 
ion      s     py     pz     px    dxy    dyz    dz2    dxz    dx2    tot
  1  0.000  0.000  0.000  0.000  0.039  0.022  0.174  0.141  0.370  0.747
  2  0.000  0.051  0.015  0.002  0.000  0.000  0.000  0.000  0.000  0.068
  3  0.000  0.051  0.015  0.002  0.000  0.000  0.000  0.000  0.000  0.068
tot  0.000  0.102  0.029  0.005  0.039  0.022  0.174  0.141  0.370  0.884
 
band   4 # energy   -7.02907280 # occ.  1.00000000
 
ion      s     py     pz     px    dxy    dyz    dz2    dxz    dx2    tot
  1  0.000  0.000  0.000  0.000  0.250  0.075  0.097  0.028  0.297  0.747
  2  0.000  0.009  0.008  0.051  0.000  0.000  0.000  0.000  0.000  0.068
  3  0.000  0.009  0.008  0.051  0.000  0.000  0.000  0.000  0.000  0.068
tot  0.000  0.019  0.016  0.101  0.250  0.075  0.097  0.028  0.297  0.884
 
band   5 # energy   -6.67598696 # occ.  1.00000000
 
ion      s     py     pz     px    dxy    dyz    dz2    dxz    dx2    tot
  1  0.000  0.000  0.001  0.000  0.058  0.173  0.195  0.346  0.007  0.780
  2  0.004  0.006  0.038  0.013  0.000  0.000  0.000  0.000  0.000  0.060
  3  0.004  0.006  0.038  0.013  0.000  0.000  0.000  0.000  0.000  0.060
tot  0.007  0.013  0.077  0.026  0.058  0.173  0.195  0.346  0.007  0.901
 
band   6 # energy   -6.24192060 # occ.  1.00000000
 
ion      s     py     pz     px    dxy    dyz    dz2    dxz    dx2    tot
  1  0.000  0.000  0.000  0.000  0.022  0.611  0.006  0.289  0.016  0.943
  2  0.000  0.003  0.000  0.001  0.000  0.000  0.000  0.000  0.000  0.004
  3  0.000  0.003  0.000  0.001  0.000  0.000  0.000  0.000  0.000  0.004
tot  0.000  0.006  0.000  0.002  0.022  0.611  0.006  0.289  0.016  0.951
 
band   7 # energy   -6.24191739 # occ.  1.00000000
 
ion      s     py     pz     px    dxy    dyz    dz2    dxz    dx2    tot
  1  0.000  0.000  0.000  0.000  0.493  0.002  0.352  0.023  0.074  0.943
  2  0.000  0.001  0.001  0.002  0.000  0.000  0.000  0.000  0.000  0.004
  3  0.000  0.001  0.001  0.002  0.000  0.000  0.000  0.000  0.000  0.004
tot  0.000  0.001  0.003  0.004  0.493  0.002  0.352  0.023  0.074  0.951
 
band   8 # energy   -3.72637076 # occ.  1.00000000
 
ion      s     py     pz     px    dxy    dyz    dz2    dxz    dx2    tot
  1  0.070  0.001  0.007  0.002  0.002  0.005  0.006  0.010  0.000  0.104
  2  0.005  0.035  0.211  0.070  0.000  0.000  0.000  0.000  0.000  0.321
  3  0.005  0.035  0.211  0.070  0.000  0.000  0.000  0.000  0.000  0.321
tot  0.079  0.071  0.429  0.143  0.002  0.005  0.006  0.010  0.000  0.746
 
band   9 # energy   -2.96063210 # occ.  1.00000000
 
ion      s     py     pz     px    dxy    dyz    dz2    dxz    dx2    tot
  1  0.000  0.007  0.007  0.007  0.000  0.007  0.037  0.009  0.001  0.074
  2  0.000  0.126  0.118  0.119  0.000  0.000  0.000  0.000  0.000  0.363
  3  0.000  0.126  0.118  0.119  0.000  0.000  0.000  0.000  0.000  0.363
tot  0.000  0.259  0.243  0.244  0.000  0.007  0.037  0.009  0.001  0.800
 
band  10 # energy   -2.96062913 # occ.  1.00000000
 
ion      s     py     pz     px    dxy    dyz    dz2    dxz    dx2    tot
  1  0.000  0.011  0.000  0.010  0.005  0.003  0.001  0.004  0.040  0.074
  2  0.000  0.197  0.003  0.163  0.000  0.000  0.000  0.000  0.000  0.363
  3  0.000  0.197  0.003  0.163  0.000  0.000  0.000  0.000  0.000  0.363
tot  0.000  0.404  0.006  0.336  0.005  0.003  0.001  0.004  0.040  0.800
 
band  11 # energy   -2.81789849 # occ.  1.00000000
 
ion      s     py     pz     px    dxy    dyz    dz2    dxz    dx2    tot
  1  0.016  0.001  0.006  0.002  0.012  0.037  0.042  0.074  0.002  0.191
  2  0.005  0.033  0.198  0.066  0.000  0.000  0.000  0.000  0.000  0.302
  3  0.005  0.033  0.198  0.066  0.000  0.000  0.000  0.000  0.000  0.302
tot  0.025  0.067  0.402  0.134  0.012  0.037  0.042  0.074  0.002  0.795
 
band  12 # energy   -2.21355469 # occ.  1.00000000
 
ion      s     py     pz     px    dxy    dyz    dz2    dxz    dx2    tot
  1  0.000  0.000  0.000  0.000  0.042  0.013  0.057  0.045  0.039  0.196
  2  0.000  0.151  0.101  0.077  0.000  0.000  0.000  0.000  0.000  0.329
  3  0.000  0.151  0.101  0.077  0.000  0.000  0.000  0.000  0.000  0.329
tot  0.000  0.302  0.203  0.153  0.042  0.013  0.057  0.045  0.039  0.854
 
band  13 # energy   -2.21355252 # occ.  1.00000000
 
ion      s     py     pz     px    dxy    dyz    dz2    dxz    dx2    tot
  1  0.000  0.000  0.000  0.000  0.043  0.016  0.005  0.000  0.133  0.196
  2  0.000  0.141  0.008  0.179  0.000  0.000  0.000  0.000  0.000  0.329
  3  0.000  0.141  0.008  0.179  0.000  0.000  0.000  0.000  0.000  0.329
tot  0.000  0.283  0.017  0.358  0.043  0.016  0.005  0.000  0.133  0.854
 
band  14 # energy    2.93560683 # occ.  0.00000000
 
ion      s     py     pz     px    dxy    dyz    dz2    dxz    dx2    tot
  1  0.336  0.002  0.009  0.003  0.000  0.000  0.000  0.001  0.000  0.352
  2  0.037  0.011  0.064  0.021  0.000  0.000  0.000  0.000  0.000  0.133
  3  0.037  0.011  0.064  0.021  0.000  0.000  0.000  0.000  0.000  0.133
tot  0.410  0.023  0.138  0.046  0.000  0.000  0.000  0.001  0.000  0.619
 
band  15 # energy    8.82250043 # occ.  0.00000000
 
ion      s     py     pz     px    dxy    dyz    dz2    dxz    dx2    tot
  1  0.103  0.021  0.126  0.042  0.000  0.000  0.000  0.000  0.000  0.293
  2  0.004  0.006  0.033  0.011  0.000  0.000  0.000  0.000  0.000  0.054
  3  0.004  0.006  0.033  0.011  0.000  0.000  0.000  0.000  0.000  0.054
tot  0.112  0.032  0.193  0.064  0.000  0.000  0.000  0.000  0.000  0.402
 
band  16 # energy   11.42379813 # occ.  0.00000000
 
ion      s     py     pz     px    dxy    dyz    dz2    dxz    dx2    tot
  1  0.000  0.278  0.000  0.114  0.000  0.001  0.000  0.001  0.000  0.395
  2  0.000  0.018  0.000  0.007  0.000  0.000  0.000  0.000  0.000  0.026
  3  0.000  0.018  0.000  0.007  0.000  0.000  0.000  0.000  0.000  0.026
tot  0.000  0.315  0.000  0.129  0.000  0.001  0.000  0.001  0.000  0.446
 
band  17 # energy   11.42380254 # occ.  0.00000000
 
ion      s     py     pz     px    dxy    dyz    dz2    dxz    dx2    tot
  1  0.000  0.071  0.131  0.191  0.001  0.000  0.001  0.000  0.000  0.395
  2  0.000  0.005  0.008  0.012  0.000  0.000  0.000  0.000  0.000  0.026
  3  0.000  0.005  0.008  0.012  0.000  0.000  0.000  0.000  0.000  0.026
tot  0.000  0.080  0.148  0.216  0.001  0.000  0.001  0.000  0.000  0.446
 
band  18 # energy   16.66897487 # occ.  0.00000000
 
ion      s     py     pz     px    dxy    dyz    dz2    dxz    dx2    tot
  1  0.000  0.003  0.002  0.015  0.046  0.081  0.011  0.034  0.002  0.196
  2  0.000  0.006  0.004  0.026  0.000  0.000  0.000  0.000  0.000  0.036
  3  0.000  0.006  0.004  0.026  0.000  0.000  0.000  0.000  0.000  0.036
tot  0.000  0.015  0.010  0.067  0.046  0.081  0.011  0.034  0.002  0.267
 

 k-point    4 :    0.00000000 0.25000000 0.00000000     weight = 0.06250000

band   1 # energy  -22.08076603 # occ.  1.00000000
 
ion      s     py     pz     px    dxy    dyz    dz2    dxz    dx2    tot
  1  0.010  0.002  0.000  0.000  0.000  0.000  0.000  0.000  0.000  0.012
  2  0.416  0.000  0.000  0.000  0.000  0.000  0.000  0.000  0.000  0.416
  3  0.416  0.000  0.000  0.000  0.000  0.000  0.000  0.000  0.000  0.416
tot  0.842  0.002  0.000  0.000  0.000  0.000  0.000  0.000  0.000  0.845
 
band   2 # energy  -21.42677871 # occ.  1.00000000
 
ion      s     py     pz     px    dxy    dyz    dz2    dxz    dx2    tot
  1  0.000  0.000  0.000  0.000  0.000  0.000  0.001  0.000  0.002  0.004
  2  0.439  0.000  0.000  0.000  0.000  0.000  0.000  0.000  0.000  0.439
  3  0.439  0.000  0.000  0.000  0.000  0.000  0.000  0.000  0.000  0.439
tot  0.878  0.001  0.000  0.000  0.000  0.000  0.001  0.000  0.002  0.882
 
band   3 # energy   -7.02907398 # occ.  1.00000000
 
ion      s     py     pz     px    dxy    dyz    dz2    dxz    dx2    tot
  1  0.000  0.000  0.000  0.000  0.007  0.123  0.023  0.586  0.008  0.747
  2  0.000  0.000  0.065  0.003  0.000  0.000  0.000  0.000  0.000  0.068
  3  0.000  0.000  0.065  0.003  0.000  0.000  0.000  0.000  0.000  0.068
tot  0.000  0.000  0.130  0.007  0.007  0.123  0.023  0.586  0.008  0.884
 
band   4 # energy   -7.02907270 # occ.  1.00000000
 
ion      s     py     pz     px    dxy    dyz    dz2    dxz    dx2    tot
  1  0.000  0.000  0.000  0.000  0.123  0.007  0.440  0.031  0.147  0.747
  2  0.000  0.000  0.003  0.065  0.000  0.000  0.000  0.000  0.000  0.068
  3  0.000  0.000  0.003  0.065  0.000  0.000  0.000  0.000  0.000  0.068
tot  0.000  0.000  0.007  0.130  0.123  0.007  0.440  0.031  0.147  0.884
 
band   5 # energy   -6.67598773 # occ.  1.00000000
 
ion      s     py     pz     px    dxy    dyz    dz2    dxz    dx2    tot
  1  0.000  0.002  0.000  0.000  0.000  0.000  0.195  0.000  0.584  0.780
  2  0.004  0.057  0.000  0.000  0.000  0.000  0.000  0.000  0.000  0.060
  3  0.004  0.057  0.000  0.000  0.000  0.000  0.000  0.000  0.000  0.060
tot  0.007  0.115  0.000  0.000  0.000  0.000  0.195  0.000  0.584  0.901
 
band   6 # energy   -6.24192034 # occ.  1.00000000
 
ion      s     py     pz     px    dxy    dyz    dz2    dxz    dx2    tot
  1  0.000  0.000  0.000  0.000  0.010  0.762  0.002  0.169  0.001  0.943
  2  0.000  0.000  0.004  0.000  0.000  0.000  0.000  0.000  0.000  0.004
  3  0.000  0.000  0.004  0.000  0.000  0.000  0.000  0.000  0.000  0.004
tot  0.000  0.000  0.008  0.000  0.010  0.762  0.002  0.169  0.001  0.951
 
band   7 # energy   -6.24191712 # occ.  1.00000000
 
ion      s     py     pz     px    dxy    dyz    dz2    dxz    dx2    tot
  1  0.000  0.000  0.000  0.000  0.762  0.010  0.126  0.002  0.042  0.943
  2  0.000  0.000  0.000  0.004  0.000  0.000  0.000  0.000  0.000  0.004
  3  0.000  0.000  0.000  0.004  0.000  0.000  0.000  0.000  0.000  0.004
tot  0.000  0.000  0.000  0.008  0.762  0.010  0.126  0.002  0.042  0.951
 
band   8 # energy   -3.72637080 # occ.  1.00000000
 
ion      s     py     pz     px    dxy    dyz    dz2    dxz    dx2    tot
  1  0.070  0.010  0.000  0.000  0.000  0.000  0.006  0.000  0.018  0.104
  2  0.005  0.317  0.000  0.000  0.000  0.000  0.000  0.000  0.000  0.321
  3  0.005  0.317  0.000  0.000  0.000  0.000  0.000  0.000  0.000  0.321
tot  0.079  0.643  0.000  0.000  0.000  0.000  0.006  0.000  0.018  0.746
 
band   9 # energy   -2.96063251 # occ.  1.00000000
 
ion      s     py     pz     px    dxy    dyz    dz2    dxz    dx2    tot
  1  0.000  0.000  0.018  0.003  0.006  0.031  0.002  0.014  0.001  0.074
  2  0.000  0.000  0.305  0.058  0.000  0.000  0.000  0.000  0.000  0.363
  3  0.000  0.000  0.305  0.058  0.000  0.000  0.000  0.000  0.000  0.363
tot  0.000  0.000  0.628  0.119  0.006  0.031  0.002  0.014  0.001  0.800
 
band  10 # energy   -2.96062808 # occ.  1.00000000
 
ion      s     py     pz     px    dxy    dyz    dz2    dxz    dx2    tot
  1  0.000  0.000  0.003  0.018  0.031  0.006  0.011  0.003  0.004  0.074
  2  0.000  0.000  0.058  0.305  0.000  0.000  0.000  0.000  0.000  0.363
  3  0.000  0.000  0.058  0.305  0.000  0.000  0.000  0.000  0.000  0.363
tot  0.000  0.000  0.119  0.628  0.031  0.006  0.011  0.003  0.004  0.800
 
band  11 # energy   -2.81789972 # occ.  1.00000000
 
ion      s     py     pz     px    dxy    dyz    dz2    dxz    dx2    tot
  1  0.016  0.008  0.000  0.000  0.000  0.000  0.042  0.000  0.125  0.191
  2  0.005  0.298  0.000  0.000  0.000  0.000  0.000  0.000  0.000  0.302
  3  0.005  0.298  0.000  0.000  0.000  0.000  0.000  0.000  0.000  0.302
tot  0.025  0.603  0.000  0.000  0.000  0.000  0.042  0.000  0.125  0.795
 
band  12 # energy   -2.21355487 # occ.  1.00000000
 
ion      s     py     pz     px    dxy    dyz    dz2    dxz    dx2    tot
  1  0.000  0.000  0.000  0.000  0.003  0.022  0.018  0.147  0.006  0.196
  2  0.000  0.000  0.284  0.045  0.000  0.000  0.000  0.000  0.000  0.329
  3  0.000  0.000  0.284  0.045  0.000  0.000  0.000  0.000  0.000  0.329
tot  0.000  0.000  0.568  0.090  0.003  0.022  0.018  0.147  0.006  0.854
 
band  13 # energy   -2.21355103 # occ.  1.00000000
 
ion      s     py     pz     px    dxy    dyz    dz2    dxz    dx2    tot
  1  0.000  0.000  0.000  0.000  0.022  0.003  0.111  0.023  0.037  0.196
  2  0.000  0.000  0.045  0.284  0.000  0.000  0.000  0.000  0.000  0.329
  3  0.000  0.000  0.045  0.284  0.000  0.000  0.000  0.000  0.000  0.329
tot  0.000  0.000  0.090  0.568  0.022  0.003  0.111  0.023  0.037  0.854
 
band  14 # energy    2.93560636 # occ.  0.00000000
 
ion      s     py     pz     px    dxy    dyz    dz2    dxz    dx2    tot
  1  0.336  0.014  0.000  0.000  0.000  0.000  0.000  0.000  0.001  0.352
  2  0.037  0.096  0.000  0.000  0.000  0.000  0.000  0.000  0.000  0.133
  3  0.037  0.096  0.000  0.000  0.000  0.000  0.000  0.000  0.000  0.133
tot  0.410  0.206  0.000  0.000  0.000  0.000  0.000  0.000  0.001  0.619
 
band  15 # energy    8.82250042 # occ.  0.00000000
 
ion      s     py     pz     px    dxy    dyz    dz2    dxz    dx2    tot
  1  0.103  0.190  0.000  0.000  0.000  0.000  0.000  0.000  0.000  0.293
  2  0.004  0.050  0.000  0.000  0.000  0.000  0.000  0.000  0.000  0.054
  3  0.004  0.050  0.000  0.000  0.000  0.000  0.000  0.000  0.000  0.054
tot  0.112  0.290  0.000  0.000  0.000  0.000  0.000  0.000  0.000  0.402
 
band  16 # energy   11.42379807 # occ.  0.00000000
 
ion      s     py     pz     px    dxy    dyz    dz2    dxz    dx2    tot
  1  0.000  0.000  0.392  0.001  0.000  0.002  0.000  0.000  0.000  0.395
  2  0.000  0.000  0.025  0.000  0.000  0.000  0.000  0.000  0.000  0.026