<?xml version="1.0" encoding="ISO-8859-1"?>
<modeling>
 <generator>
  <i name="program" type="string">vasp </i>
  <i name="version" type="string">5.4.1  </i>
  <i name="subversion" type="string">24Jun15 (build Jul 13 2016 16:36:47) complex                          parallel </i>
  <i name="platform" type="string">IFC91_ompi </i>
  <i name="date" type="string">2020 03 31 </i>
  <i name="time" type="string">16:02:52 </i>
 </generator>
 <incar>
  <i type="string" name="PREC">accurate</i>
  <i type="string" name="ALGO"> Normal</i>
  <i type="int" name="ISPIN">     2</i>
  <i type="int" name="ICHARG">     0</i>
  <i type="int" name="NELM">   100</i>
  <i type="int" name="IBRION">    -1</i>
  <i name="EDIFF">      0.00000010</i>
  <i type="int" name="NSW">     0</i>
  <i type="int" name="ISIF">     3</i>
  <i type="int" name="ISYM">     0</i>
  <i name="ENCUT">    520.00000000</i>
  <i type="int" name="NBANDS">    17</i>
  <v name="MAGMOM">      0.00000000      0.00000000      0.00000000</v>
  <i type="string" name="LREAL"> Auto</i>
  <i type="int" name="ISMEAR">    -5</i>
  <i name="SIGMA">      0.05000000</i>
  <i type="logical" name="LWAVE"> T  </i>
  <i type="logical" name="LORBIT"> F  </i>
  <v type="int" name="KPOINT_BSE">    -1     0     0     0</v>
  <i type="int" name="NELM">   100</i>
 </incar>
 <kpoints>
  <generation param="Monkhorst-Pack">
   <v type="int" name="divisions">       2        2        2 </v>
   <v name="usershift">      0.00000000       0.00000000       0.00000000 </v>
   <v name="genvec1">      0.50000000      -0.00000000       0.00000000 </v>
   <v name="genvec2">      0.00000000       0.50000000       0.00000000 </v>
   <v name="genvec3">      0.00000000       0.00000000       0.50000000 </v>
   <v name="shift">      0.50000000       0.50000000       0.50000000 </v>
  </generation>
  <varray name="kpointlist" >
   <v>       0.25000000       0.25000000       0.25000000 </v>
   <v>       0.25000000       0.00000000       0.00000000 </v>
   <v>       0.00000000      -0.00000000      -0.25000000 </v>
   <v>       0.00000000       0.25000000       0.00000000 </v>
   <v>      -0.25000000       0.25000000       0.25000000 </v>
   <v>       0.25000000      -0.25000000       0.25000000 </v>
   <v>       0.25000000       0.25000000      -0.25000000 </v>
   <v>       0.25000000       0.00000000       0.50000000 </v>
   <v>      -0.25000000       0.50000000       0.50000000 </v>
   <v>       0.25000000       0.50000000       0.00000000 </v>
   <v>       0.00000000       0.50000000      -0.25000000 </v>
   <v>       0.50000000      -0.00000000      -0.25000000 </v>
   <v>       0.50000000       0.50000000       0.25000000 </v>
   <v>       0.50000000      -0.25000000       0.50000000 </v>
   <v>       0.00000000       0.25000000       0.50000000 </v>
   <v>       0.50000000       0.25000000       0.00000000 </v>
  </varray>
  <varray name="weights" >
   <v>       0.06250000 </v>
   <v>       0.06250000 </v>
   <v>       0.06250000 </v>
   <v>       0.06250000 </v>
   <v>       0.06250000 </v>
   <v>       0.06250000 </v>
   <v>       0.06250000 </v>
   <v>       0.06250000 </v>
   <v>       0.06250000 </v>
   <v>       0.06250000 </v>
   <v>       0.06250000 </v>
   <v>       0.06250000 </v>
   <v>       0.06250000 </v>
   <v>       0.06250000 </v>
   <v>       0.06250000 </v>
   <v>       0.06250000 </v>
  </varray>
  <varray name="tetrahedronlist"  type="int" >
   <v type="int" >        4        2        2        5       16 </v>
   <v type="int" >        4        2        2       12       16 </v>
   <v type="int" >        4        2        2        5       12 </v>
   <v type="int" >        4        3        7       12       16 </v>
   <v type="int" >        4        3        7        8       12 </v>
   <v type="int" >        4        3        8       12       15 </v>
   <v type="int" >        4        2        3       12       16 </v>
   <v type="int" >        4        2        3        5       12 </v>
   <v type="int" >        4        3        5       12       15 </v>
   <v type="int" >        4        7        8        8       15 </v>
   <v type="int" >        4        3        8        8       15 </v>
   <v type="int" >        4        3        7        8        8 </v>
   <v type="int" >        4        1        5        9       13 </v>
   <v type="int" >        4        1        5       13       16 </v>
   <v type="int" >        4        1        2        5       16 </v>
   <v type="int" >        4        1        5        9       14 </v>
   <v type="int" >        4        1        5       12       14 </v>
   <v type="int" >        4        1        2        5       12 </v>
   <v type="int" >        4        4       10       13       16 </v>
   <v type="int" >        4        4        7       10       16 </v>
   <v type="int" >        4        3        4        7       16 </v>
   <v type="int" >        4        1        4       13       16 </v>
   <v type="int" >        4        1        2        4       16 </v>
   <v type="int" >        4        2        3        4       16 </v>
   <v type="int" >        4        6        7       10       11 </v>
   <v type="int" >        4        6        7       11       15 </v>
   <v type="int" >        4        6        7        8       15 </v>
   <v type="int" >        4        4        6        7       10 </v>
   <v type="int" >        4        3        4        6        7 </v>
   <v type="int" >        4        3        6        7        8 </v>
   <v type="int" >        4        9       11       14       15 </v>
   <v type="int" >        4        5        9       14       15 </v>
   <v type="int" >        4        5       12       14       15 </v>
   <v type="int" >        4        6       11       14       15 </v>
   <v type="int" >        4        6        8       14       15 </v>
   <v type="int" >        4        8       12       14       15 </v>
   <v type="int" >        4        1        9        9       14 </v>
   <v type="int" >        4        9        9       13       14 </v>
   <v type="int" >        4        1        9        9       13 </v>
   <v type="int" >        4        6       11       13       14 </v>
   <v type="int" >        4        6       10       11       13 </v>
   <v type="int" >        4        4       10       11       13 </v>
   <v type="int" >        4        9       11       13       14 </v>
   <v type="int" >        4        1        9       11       13 </v>
   <v type="int" >        4        1        4       11       13 </v>
   <v type="int" >        4        4        6       10       10 </v>
   <v type="int" >        4        4       10       10       11 </v>
   <v type="int" >        4        6       10       10       11 </v>
   <v type="int" >        4        2        4       12       16 </v>
   <v type="int" >        4        2        4        5       16 </v>
   <v type="int" >        4        4        5       11       16 </v>
   <v type="int" >        4        4        6       12       16 </v>
   <v type="int" >        4        4        6       10       16 </v>
   <v type="int" >        4        4       10       11       16 </v>
   <v type="int" >        4        1        2        3        5 </v>
   <v type="int" >        4        1        3        5       15 </v>
   <v type="int" >        4        1        5        9       15 </v>
   <v type="int" >        4        1        2        4        5 </v>
   <v type="int" >        4        1        4        5       11 </v>
   <v type="int" >        4        1        5        9       11 </v>
   <v type="int" >        4        3        8       14       15 </v>
   <v type="int" >        4        7        8       14       15 </v>
   <v type="int" >        4        7       13       14       15 </v>
   <v type="int" >        4        1        3       14       15 </v>
   <v type="int" >        4        1        9       14       15 </v>
   <v type="int" >        4        9       13       14       15 </v>
   <v type="int" >        4        6        7        8       12 </v>
   <v type="int" >        4        6        7       12       16 </v>
   <v type="int" >        4        6        7       10       16 </v>
   <v type="int" >        4        6        7        8       14 </v>
   <v type="int" >        4        6        7       13       14 </v>
   <v type="int" >        4        6        7       10       13 </v>
   <v type="int" >        4        1        3       12       14 </v>
   <v type="int" >        4        1        2        3       12 </v>
   <v type="int" >        4        2        3        4       12 </v>
   <v type="int" >        4        3        8       12       14 </v>
   <v type="int" >        4        3        6        8       12 </v>
   <v type="int" >        4        3        4        6       12 </v>
   <v type="int" >        4        1        2        2        4 </v>
   <v type="int" >        4        2        2        3        4 </v>
   <v type="int" >        4        1        2        2        3 </v>
   <v type="int" >        4        6        8        8       14 </v>
   <v type="int" >        4        8        8       12       14 </v>
   <v type="int" >        4        6        8        8       12 </v>
   <v type="int" >        4        5       11       13       16 </v>
   <v type="int" >        4        5        9       11       13 </v>
   <v type="int" >        4        9       11       13       15 </v>
   <v type="int" >        4       10       11       13       16 </v>
   <v type="int" >        4        7       10       11       13 </v>
   <v type="int" >        4        7       11       13       15 </v>
   <v type="int" >        4        5        9        9       15 </v>
   <v type="int" >        4        9        9       11       15 </v>
   <v type="int" >        4        5        9        9       11 </v>
   <v type="int" >        4        7       10       10       16 </v>
   <v type="int" >        4       10       10       13       16 </v>
   <v type="int" >        4        7       10       10       13 </v>
  </varray>
  <i name="volumeweight">      0.00260417 </i>
 </kpoints>
 <parameters>
  <separator name="general" >
   <i type="string" name="SYSTEM">unknown system</i>
   <i type="logical" name="LCOMPAT"> F  </i>
  </separator>
  <separator name="electronic" >
   <i type="string" name="PREC">accura</i>
   <i name="ENMAX">    520.00000000</i>
   <i name="ENAUG">    613.61400000</i>
   <i name="EDIFF">      0.00000010</i>
   <i type="int" name="IALGO">    38</i>
   <i type="int" name="IWAVPR">    10</i>
   <i type="int" name="NBANDS">    18</i>
   <i name="NELECT">     26.00000000</i>
   <i type="int" name="TURBO">     0</i>
   <i type="int" name="IRESTART">     0</i>
   <i type="int" name="NREBOOT">     0</i>
   <i type="int" name="NMIN">     0</i>
   <i name="EREF">      0.00000000</i>
   <separator name="electronic smearing" >
    <i type="int" name="ISMEAR">    -5</i>
    <i name="SIGMA">      0.05000000</i>
    <i name="KSPACING">      0.50000000</i>
    <i type="logical" name="KGAMMA"> T  </i>
   </separator>
   <separator name="electronic projectors" >
    <i type="logical" name="LREAL"> T  </i>
    <v name="ROPT">     -0.00025000     -0.00025000</v>
    <i type="int" name="LMAXPAW">  -100</i>
    <i type="int" name="LMAXMIX">     2</i>
    <i type="logical" name="NLSPLINE"> F  </i>
   </separator>
   <separator name="electronic startup" >
    <i type="int" name="ISTART">     0</i>
    <i type="int" name="ICHARG">     0</i>
    <i type="int" name="INIWAV">     1</i>
   </separator>
   <separator name="electronic spin" >
    <i type="int" name="ISPIN">     2</i>
    <i type="logical" name="LNONCOLLINEAR"> F  </i>
    <v name="MAGMOM">      0.00000000      0.00000000      0.00000000</v>
    <i name="NUPDOWN">     -1.00000000</i>
    <i type="logical" name="LSORBIT"> F  </i>
    <v name="SAXIS">      0.00000000      0.00000000      1.00000000</v>
    <i type="logical" name="LSPIRAL"> F  </i>
    <v name="QSPIRAL">      0.00000000      0.00000000      0.00000000</v>
    <i type="logical" name="LZEROZ"> F  </i>
   </separator>
   <separator name="electronic exchange-correlation" >
    <i type="logical" name="LASPH"> F  </i>
    <i type="logical" name="LMETAGGA"> F  </i>
   </separator>
   <separator name="electronic convergence" >
    <i type="int" name="NELM">   100</i>
    <i type="int" name="NELMDL">    -5</i>
    <i type="int" name="NELMIN">     2</i>
    <i name="ENINI">    520.00000000</i>
    <separator name="electronic convergence detail" >
     <i type="logical" name="LDIAG"> T  </i>
     <i type="logical" name="LSUBROT"> F  </i>
     <i name="WEIMIN">      0.00000000</i>
     <i name="EBREAK">      0.00000000</i>
     <i name="DEPER">      0.30000000</i>
     <i type="int" name="NRMM">     4</i>
     <i name="TIME">      0.40000000</i>
    </separator>
   </separator>
   <separator name="electronic mixer" >
    <i name="AMIX">      0.40000000</i>
    <i name="BMIX">      1.00000000</i>
    <i name="AMIN">      0.10000000</i>
    <i name="AMIX_MAG">      1.60000000</i>
    <i name="BMIX_MAG">      1.00000000</i>
    <separator name="electronic mixer details" >
     <i type="int" name="IMIX">     4</i>
     <i type="logical" name="MIXFIRST"> F  </i>
     <i type="int" name="MAXMIX">   -45</i>
     <i name="WC">    100.00000000</i>
     <i type="int" name="INIMIX">     1</i>
     <i type="int" name="MIXPRE">     1</i>
     <i type="int" name="MREMOVE">     5</i>
    </separator>
   </separator>
   <separator name="electronic dipolcorrection" >
    <i type="logical" name="LDIPOL"> F  </i>
    <i type="logical" name="LMONO"> F  </i>
    <i type="int" name="IDIPOL">     0</i>
    <i name="EPSILON">      1.00000000</i>
    <v name="DIPOL">   -100.00000000   -100.00000000   -100.00000000</v>
    <i name="EFIELD">      0.00000000</i>
   </separator>
  </separator>
  <separator name="grids" >
   <i type="int" name="NGX">    30</i>
   <i type="int" name="NGY">    30</i>
   <i type="int" name="NGZ">    30</i>
   <i type="int" name="NGXF">    60</i>
   <i type="int" name="NGYF">    60</i>
   <i type="int" name="NGZF">    60</i>
   <i type="logical" name="ADDGRID"> F  </i>
  </separator>
  <separator name="ionic" >
   <i type="int" name="NSW">     0</i>
   <i type="int" name="IBRION">    -1</i>
   <i type="int" name="ISIF">     3</i>
   <i name="PSTRESS">      0.00000000</i>
   <i name="EDIFFG">      0.00000100</i>
   <i type="int" name="NFREE">     0</i>
   <i name="POTIM">      0.50000000</i>
   <i name="SMASS">     -3.00000000</i>
   <i name="SCALEE">      1.00000000</i>
  </separator>
  <separator name="ionic md" >
   <i name="TEBEG">      0.00010000</i>
   <i name="TEEND">      0.00010000</i>
   <i type="int" name="NBLOCK">     1</i>
   <i type="int" name="KBLOCK">     1</i>
   <i type="int" name="NPACO">   256</i>
   <i name="APACO">     16.00000000</i>
  </separator>
  <separator name="symmetry" >
   <i type="int" name="ISYM">     0</i>
   <i name="SYMPREC">      0.00001000</i>
  </separator>
  <separator name="dos" >
   <i type="logical" name="LORBIT"> F  </i>
   <v name="RWIGS">     -1.00000000     -1.00000000</v>
   <i type="int" name="NEDOS">   301</i>
   <i name="EMIN">     10.00000000</i>
   <i name="EMAX">    -10.00000000</i>
   <i name="EFERMI">      0.00000000</i>
  </separator>
  <separator name="writing" >
   <i type="int" name="NWRITE">     2</i>
   <i type="logical" name="LWAVE"> T  </i>
   <i type="logical" name="LCHARG"> T  </i>
   <i type="logical" name="LPARD"> F  </i>
   <i type="logical" name="LVTOT"> F  </i>
   <i type="logical" name="LVHAR"> F  </i>
   <i type="logical" name="LELF"> F  </i>
   <i type="logical" name="LOPTICS"> F  </i>
   <v name="STM">      0.00000000      0.00000000      0.00000000      0.00000000      0.00000000      0.00000000      0.00000000</v>
  </separator>
  <separator name="performance" >
   <i type="int" name="NPAR">     3</i>
   <i type="int" name="NSIM">     4</i>
   <i type="int" name="NBLK">    -1</i>
   <i type="logical" name="LPLANE"> T  </i>
   <i type="logical" name="LSCALAPACK"> T  </i>
   <i type="logical" name="LSCAAWARE"> F  </i>
   <i type="logical" name="LSCALU"> F  </i>
   <i type="logical" name="LASYNC"> F  </i>
   <i type="logical" name="LORBITALREAL"> F  </i>
  </separator>
  <separator name="miscellaneous" >
   <i type="int" name="IDIOT">     3</i>
   <i type="logical" name="LMUSIC"> F  </i>
   <v name="POMASS">    112.41100000     18.99800000</v>
   <v name="DARWINR">      0.00000000      0.00000000</v>
   <v name="DARWINV">      1.00000000      1.00000000</v>
   <i type="logical" name="LCORR"> T  </i>
  </separator>
  <i type="logical" name="GGA_COMPAT"> T  </i>
  <i type="logical" name="LBERRY"> F  </i>
  <i type="int" name="ICORELEVEL">     0</i>
  <i type="logical" name="LDAU"> F  </i>
  <i type="int" name="I_CONSTRAINED_M">     0</i>
  <separator name="electronic exchange-correlation" >
   <i type="string" name="GGA">--</i>
   <i type="int" name="VOSKOWN">     0</i>
   <i type="logical" name="LHFCALC"> F  </i>
   <i type="string" name="PRECFOCK"></i>
   <i type="logical" name="LSYMGRAD"> F  </i>
   <i type="logical" name="LHFONE"> F  </i>
   <i type="logical" name="LRHFCALC"> F  </i>
   <i type="logical" name="LTHOMAS"> F  </i>
   <i type="logical" name="LMODELHF"> F  </i>
   <i name="ENCUT4O">     -1.00000000</i>
   <i type="int" name="EXXOEP">     0</i>
   <i type="int" name="FOURORBIT">     0</i>
   <i name="AEXX">      0.00000000</i>
   <i name="HFALPHA">      0.00000000</i>
   <i name="MCALPHA">      0.00000000</i>
   <i name="ALDAX">      1.00000000</i>
   <i name="AGGAX">      1.00000000</i>
   <i name="ALDAC">      1.00000000</i>
   <i name="AGGAC">      1.00000000</i>
   <i type="int" name="NKREDX">     1</i>
   <i type="int" name="NKREDY">     1</i>
   <i type="int" name="NKREDZ">     1</i>
   <i type="logical" name="SHIFTRED"> F  </i>
   <i type="logical" name="ODDONLY"> F  </i>
   <i type="logical" name="EVENONLY"> F  </i>
   <i type="int" name="LMAXFOCK">     0</i>
   <i type="int" name="NMAXFOCKAE">     0</i>
   <i type="logical" name="LFOCKAEDFT"> F  </i>
   <i name="HFSCREEN">      0.00000000</i>
   <i name="HFSCREENC">      0.00000000</i>
   <i type="int" name="NBANDSGWLOW">     0</i>
  </separator>
  <separator name="vdW DFT" >
   <i type="logical" name="LUSE_VDW"> F  </i>
   <i name="Zab_VDW">     -0.84910000</i>
   <i name="PARAM1">      0.12340000</i>
   <i name="PARAM2">      1.00000000</i>
   <i name="PARAM3">      0.00000000</i>
  </separator>
  <separator name="model GW" >
   <i type="int" name="MODEL_GW">     0</i>
   <i name="MODEL_EPS0">      8.28503491</i>
   <i name="MODEL_ALPHA">      1.00000000</i>
  </separator>
  <separator name="linear response parameters" >
   <i type="logical" name="LEPSILON"> F  </i>
   <i type="logical" name="LRPA"> F  </i>
   <i type="logical" name="LNABLA"> F  </i>
   <i type="logical" name="LVEL"> F  </i>
   <i type="int" name="KINTER">     0</i>
   <i name="CSHIFT">      0.10000000</i>
   <i name="OMEGAMAX">     -1.00000000</i>
   <i name="DEG_THRESHOLD">      0.00200000</i>
  </separator>
  <separator name="orbital magnetization" >
   <i type="logical" name="NUCIND"> F  </i>
   <v name="MAGPOS">      0.00000000      0.00000000      0.00000000</v>
   <i type="logical" name="LNICSALL"> T  </i>
   <i type="logical" name="ORBITALMAG"> F  </i>
   <i type="logical" name="LMAGBLOCH"> F  </i>
   <i type="logical" name="LCHIMAG"> F  </i>
   <i type="logical" name="LGAUGE"> T  </i>
   <i type="int" name="MAGATOM">     0</i>
   <v name="MAGDIPOL">      0.00000000      0.00000000      0.00000000</v>
   <v name="AVECCONST">      0.00000000      0.00000000      0.00000000</v>
  </separator>
  <separator name="response functions" >
   <i type="logical" name="LADDER"> F  </i>
   <i type="logical" name="LFXC"> F  </i>
   <i type="logical" name="LHARTREE"> T  </i>
   <i type="int" name="IBSE">     0</i>
   <v type="int" name="KPOINT">    -1     0     0     0</v>
   <i type="logical" name="LTCTE"> F  </i>
   <i type="logical" name="LTETE"> F  </i>
   <i type="logical" name="LTRIPLET"> F  </i>
   <i type="logical" name="LFXCEPS"> F  </i>
   <i type="logical" name="LFXHEG"> F  </i>
   <i type="int" name="NATURALO">     0</i>
   <i type="logical" name="L2ORDER"> F  </i>
   <i type="logical" name="LUSEW"> F  </i>
   <i name="ENCUTGW">     -2.00000000</i>
   <i name="ENCUTGWSOFT">     -2.00000000</i>
   <i name="ENCUTLF">     -1.00000000</i>
   <i type="int" name="LMAXMP2">    -1</i>
   <i name="SCISSOR">      0.00000000</i>
   <i type="int" name="NOMEGA">     0</i>
   <i type="int" name="NOMEGAR">     0</i>
   <i type="int" name="NBANDSGW">    -1</i>
   <i type="int" name="NBANDSO">    -1</i>
   <i type="int" name="NBANDSV">    -1</i>
   <i type="int" name="NELM">   100</i>
   <i type="int" name="NELMHF">     1</i>
   <i type="int" name="DIM">     3</i>
   <i type="int" name="ANTIRES">     0</i>
   <i name="OMEGAMAX">    -30.00000000</i>
   <i name="OMEGAMIN">    -30.00000000</i>
   <i name="OMEGATL">   -200.00000000</i>
   <i type="int" name="OMEGAGRID">     0</i>
   <i name="CSHIFT">     -0.10000000</i>
   <i type="logical" name="SELFENERGY"> F  </i>
   <i type="logical" name="LSPECTRAL"> F  </i>
   <i type="logical" name="LSPECTRALGW"> F  </i>
   <i type="logical" name="LSINGLES"> F  </i>
   <i type="logical" name="LFERMIGW"> F  </i>
   <i type="logical" name="ODDONLYGW"> F  </i>
   <i type="logical" name="EVENONLYGW"> F  </i>
   <i type="int" name="NKREDLFX">     1</i>
   <i type="int" name="NKREDLFY">     1</i>
   <i type="int" name="NKREDLFZ">     1</i>
   <i type="int" name="MAXMEM">  1800</i>
   <i type="int" name="TELESCOPE">     0</i>
   <i type="int" name="TAUPAR">     1</i>
   <i type="int" name="OMEGAPAR">    -1</i>
   <i name="LAMBDA">      1.00000000</i>
  </separator>
  <separator name="External order field" >
   <i name="OFIELD_KAPPA">      0.00000000</i>
   <v name="OFIELD_K">      0.00000000      0.00000000      0.00000000</v>
   <i name="OFIELD_Q6_NEAR">      0.00000000</i>
   <i name="OFIELD_Q6_FAR">      0.00000000</i>
   <i name="OFIELD_A">      0.00000000</i>
  </separator>
 </parameters>
 <atominfo>
  <atoms>       3 </atoms>
  <types>       2 </types>
  <array name="atoms" >
   <dimension dim="1">ion</dimension>
   <field type="string">element</field>
   <field type="int">atomtype</field>
   <set>
    <rc><c>Cd</c><c>   1</c></rc>
    <rc><c>F </c><c>   2</c></rc>
    <rc><c>F </c><c>   2</c></rc>
   </set>
  </array>
  <array name="atomtypes" >
   <dimension dim="1">type</dimension>
   <field type="int">atomspertype</field>
   <field type="string">element</field>
   <field>mass</field>
   <field>valence</field>
   <field type="string">pseudopotential</field>
   <set>
    <rc><c>   1</c><c>Cd</c><c>    112.41100000</c><c>     12.00000000</c><c>  PAW_PBE Cd 06Sep2000                  </c></rc>
    <rc><c>   2</c><c>F </c><c>     18.99800000</c><c>      7.00000000</c><c>  PAW_PBE F 08Apr2002                   </c></rc>
   </set>
  </array>
 </atominfo>
 <structure name="initialpos" >
  <crystal>
   <varray name="basis" >
    <v>       3.36349200       0.00000000       1.94191300 </v>
    <v>       1.12116400       3.17113100       1.94191300 </v>
    <v>       0.00000000       0.00000000       3.88382600 </v>
   </varray>
   <i name="volume">     41.42517455 </i>
   <varray name="rec_basis" >
    <v>       0.29731006      -0.10511497       0.00000000 </v>
    <v>       0.00000000       0.31534490       0.00000000 </v>
    <v>      -0.14865503      -0.10511497       0.25747806 </v>
   </varray>
  </crystal>
  <varray name="positions" >
   <v>       0.00000000       0.00000000       0.00000000 </v>
   <v>       0.75000000       0.75000000       0.75000000 </v>
   <v>       0.25000000       0.25000000       0.25000000 </v>
  </varray>
 </structure>
 <calculation>
  <scstep>
   <time name="dav">    1.68    1.70</time>
   <time name="total">    1.82    1.85</time>
   <energy>
    <i name="alphaZ">    147.93194166 </i>
    <i name="ewald">  -1947.62834194 </i>
    <i name="hartreedc">    -49.25099381 </i>
    <i name="XCdc">     49.01964678 </i>
    <i name="pawpsdc">**************** </i>
    <i name="pawaedc">**************** </i>
    <i name="eentropy">      0.00000000 </i>
    <i name="bandstr">  -1432.36636191 </i>
    <i name="atom">   2612.40559352 </i>
    <i name="e_fr_energy">   -591.72712602 </i>
    <i name="e_wo_entrp">   -591.72712602 </i>
    <i name="e_0_energy">   -591.72712602 </i>
   </energy>
  </scstep>
  <scstep>
   <time name="dav">    1.65    1.65</time>
   <time name="total">    1.65    1.65</time>
   <energy>
    <i name="e_fr_energy">   -773.40713086 </i>
    <i name="e_wo_entrp">   -773.40713086 </i>
    <i name="e_0_energy">   -773.40713086 </i>
   </energy>
  </scstep>
  <scstep>
   <time name="dav">    1.68    1.68</time>
   <time name="total">    1.68    1.68</time>
   <energy>
    <i name="e_fr_energy">   -779.38407540 </i>
    <i name="e_wo_entrp">   -779.38407540 </i>
    <i name="e_0_energy">   -779.38407540 </i>
   </energy>
  </scstep>
  <scstep>
   <time name="dav">    1.89    1.89</time>
   <time name="total">    1.89    1.89</time>
   <energy>
    <i name="e_fr_energy">   -779.48569331 </i>
    <i name="e_wo_entrp">   -779.48569331 </i>
    <i name="e_0_energy">   -779.48569331 </i>
   </energy>
  </scstep>
  <scstep>
   <time name="dav">    1.90    1.90</time>
   <time name="total">    2.01    2.01</time>
   <energy>
    <i name="e_fr_energy">   -779.48778892 </i>
    <i name="e_wo_entrp">   -779.48778892 </i>
    <i name="e_0_energy">   -779.48778892 </i>
   </energy>
  </scstep>
  <scstep>
   <time name="dav">    1.42    1.43</time>
   <time name="total">    1.67    1.68</time>
   <energy>
    <i name="e_fr_energy">   -186.81827492 </i>
    <i name="e_wo_entrp">   -186.81827492 </i>
    <i name="e_0_energy">   -186.81827492 </i>
   </energy>
  </scstep>
  <scstep>
   <time name="dav">    1.72    1.72</time>
   <time name="total">    1.97    1.97</time>
   <energy>
    <i name="e_fr_energy">   -102.01481878 </i>
    <i name="e_wo_entrp">   -102.01481878 </i>
    <i name="e_0_energy">   -102.01481878 </i>
   </energy>
  </scstep>
  <scstep>
   <time name="dav">    1.50    1.50</time>
   <time name="total">    1.74    1.75</time>
   <energy>
    <i name="e_fr_energy">    -14.99619667 </i>
    <i name="e_wo_entrp">    -14.99619667 </i>
    <i name="e_0_energy">    -14.99619667 </i>
   </energy>
  </scstep>
  <scstep>
   <time name="dav">    1.51    1.51</time>
   <time name="total">    1.75    1.76</time>
   <energy>
    <i name="e_fr_energy">    -15.51273877 </i>
    <i name="e_wo_entrp">    -15.51273877 </i>
    <i name="e_0_energy">    -15.51273877 </i>
   </energy>
  </scstep>
  <scstep>
   <time name="dav">    1.97    1.97</time>
   <time name="total">    2.21    2.22</time>
   <energy>
    <i name="e_fr_energy">    -12.88955384 </i>
    <i name="e_wo_entrp">    -12.88955384 </i>
    <i name="e_0_energy">    -12.88955384 </i>
   </energy>
  </scstep>
  <scstep>
   <time name="dav">    1.55    1.55</time>
   <time name="total">    1.80    1.81</time>
   <energy>
    <i name="e_fr_energy">    -11.04982084 </i>
    <i name="e_wo_entrp">    -11.04982084 </i>
    <i name="e_0_energy">    -11.04982084 </i>
   </energy>
  </scstep>
  <scstep>
   <time name="dav">    1.33    1.34</time>
   <time name="total">    1.59    1.59</time>
   <energy>
    <i name="e_fr_energy">    -10.90167034 </i>
    <i name="e_wo_entrp">    -10.90167034 </i>
    <i name="e_0_energy">    -10.90167034 </i>
   </energy>
  </scstep>
  <scstep>
   <time name="dav">    1.42    1.42</time>
   <time name="total">    1.67    1.67</time>
   <energy>
    <i name="e_fr_energy">    -10.92384399 </i>
    <i name="e_wo_entrp">    -10.92384399 </i>
    <i name="e_0_energy">    -10.92384399 </i>
   </energy>
  </scstep>
  <scstep>
   <time name="dav">    1.43    1.43</time>
   <time name="total">    1.69    1.69</time>
   <energy>
    <i name="e_fr_energy">    -10.92157588 </i>
    <i name="e_wo_entrp">    -10.92157588 </i>
    <i name="e_0_energy">    -10.92157588 </i>
   </energy>
  </scstep>
  <scstep>
   <time name="dav">    1.42    1.42</time>
   <time name="total">    1.67    1.67</time>
   <energy>
    <i name="e_fr_energy">    -10.92097207 </i>
    <i name="e_wo_entrp">    -10.92097207 </i>
    <i name="e_0_energy">    -10.92097207 </i>
   </energy>
  </scstep>
  <scstep>
   <time name="dav">    1.37    1.37</time>
   <time name="total">    1.61    1.62</time>
   <energy>
    <i name="e_fr_energy">    -10.92024675 </i>
    <i name="e_wo_entrp">    -10.92024675 </i>
    <i name="e_0_energy">    -10.92024675 </i>
   </energy>
  </scstep>
  <scstep>
   <time name="dav">    1.32    1.32</time>
   <time name="total">    1.57    1.57</time>
   <energy>
    <i name="e_fr_energy">    -10.92028649 </i>
    <i name="e_wo_entrp">    -10.92028649 </i>
    <i name="e_0_energy">    -10.92028649 </i>
   </energy>
  </scstep>
  <scstep>
   <time name="dav">    1.50    1.51</time>
   <time name="total">    1.75    1.76</time>
   <energy>
    <i name="e_fr_energy">    -10.92028389 </i>
    <i name="e_wo_entrp">    -10.92028389 </i>
    <i name="e_0_energy">    -10.92028389 </i>
   </energy>
  </scstep>
  <scstep>
   <time name="dav">    1.35    1.35</time>
   <time name="total">    1.60    1.60</time>
   <energy>
    <i name="e_fr_energy">    -10.92028478 </i>
    <i name="e_wo_entrp">    -10.92028478 </i>
    <i name="e_0_energy">    -10.92028478 </i>
   </energy>
  </scstep>
  <scstep>
   <time name="dav">    1.26    1.26</time>
   <time name="total">    1.40    1.40</time>
   <energy>
    <i name="alphaZ">    147.93194166 </i>
    <i name="ewald">  -1947.62834194 </i>
    <i name="hartreedc">   -742.90443942 </i>
    <i name="XCdc">     81.24555249 </i>
    <i name="pawpsdc">   2486.97547121 </i>
    <i name="pawaedc">  -2460.06893326 </i>
    <i name="eentropy">      0.00000000 </i>
    <i name="bandstr">   -188.87712901 </i>
    <i name="atom">   2612.40559352 </i>
    <i name="e_fr_energy">    -10.92028475 </i>
    <i name="e_wo_entrp">    -10.92028475 </i>
    <i name="e_0_energy">    -10.92028475 </i>
   </energy>
  </scstep>
  <structure>
   <crystal>
    <varray name="basis" >
     <v>       3.36349200       0.00000000       1.94191300 </v>
     <v>       1.12116400       3.17113100       1.94191300 </v>
     <v>       0.00000000       0.00000000       3.88382600 </v>
    </varray>
    <i name="volume">     41.42517455 </i>
    <varray name="rec_basis" >
     <v>       0.29731006      -0.10511497       0.00000000 </v>
     <v>       0.00000000       0.31534490       0.00000000 </v>
     <v>      -0.14865503      -0.10511497       0.25747806 </v>
    </varray>
   </crystal>
   <varray name="positions" >
    <v>       0.00000000       0.00000000       0.00000000 </v>
    <v>       0.75000000       0.75000000       0.75000000 </v>
    <v>       0.25000000       0.25000000       0.25000000 </v>
   </varray>
  </structure>
  <varray name="forces" >
   <v>       0.00000202      -0.00000097      -0.00000417 </v>
   <v>       0.00000165       0.00000060       0.00000628 </v>
   <v>      -0.00000367       0.00000037      -0.00000211 </v>
  </varray>
  <varray name="stress" >
   <v>      -1.54697725       0.00085902       0.00195218 </v>
   <v>       0.00085947      -1.54716892       0.00135040 </v>
   <v>       0.00195205       0.00135076      -1.54483264 </v>
  </varray>
  <energy>
   <i name="e_fr_energy">    -10.92028475 </i>
   <i name="e_wo_entrp">    -10.92028475 </i>
   <i name="e_0_energy">      0.00000000 </i>
  </energy>
  <time name="totalsc">   37.95   38.16</time>
  <eigenvalues>
   <array>
    <dimension dim="1">band</dimension>
    <dimension dim="2">kpoint</dimension>
    <dimension dim="3">spin</dimension>
    <field>eigene</field>
    <field>occ</field>
    <set>
     <set comment="spin 1">
      <set comment="kpoint 1">
       <r>  -22.0808    1.0000 </r>
       <r>  -21.4268    1.0000 </r>
       <r>   -7.0291    1.0000 </r>
       <r>   -7.0291    1.0000 </r>
       <r>   -6.6760    1.0000 </r>
       <r>   -6.2419    1.0000 </r>
       <r>   -6.2419    1.0000 </r>
       <r>   -3.7264    1.0000 </r>
       <r>   -2.9606    1.0000 </r>
       <r>   -2.9606    1.0000 </r>
       <r>   -2.8179    1.0000 </r>
       <r>   -2.2136    1.0000 </r>
       <r>   -2.2136    1.0000 </r>
       <r>    2.9356    0.0000 </r>
       <r>    8.8225    0.0000 </r>
       <r>   11.4238    0.0000 </r>
       <r>   11.4238    0.0000 </r>
       <r>   16.6690    0.0000 </r>
      </set>
      <set comment="kpoint 2">
       <r>  -22.0808    1.0000 </r>
       <r>  -21.4268    1.0000 </r>
       <r>   -7.0291    1.0000 </r>
       <r>   -7.0291    1.0000 </r>
       <r>   -6.6760    1.0000 </r>
       <r>   -6.2419    1.0000 </r>
       <r>   -6.2419    1.0000 </r>
       <r>   -3.7264    1.0000 </r>
       <r>   -2.9606    1.0000 </r>
       <r>   -2.9606    1.0000 </r>
       <r>   -2.8179    1.0000 </r>
       <r>   -2.2136    1.0000 </r>
       <r>   -2.2136    1.0000 </r>
       <r>    2.9356    0.0000 </r>
       <r>    8.8225    0.0000 </r>
       <r>   11.4238    0.0000 </r>
       <r>   11.4238    0.0000 </r>
       <r>   16.6690    0.0000 </r>
      </set>
      <set comment="kpoint 3">
       <r>  -22.0808    1.0000 </r>
       <r>  -21.4268    1.0000 </r>
       <r>   -7.0291    1.0000 </r>
       <r>   -7.0291    1.0000 </r>
       <r>   -6.6760    1.0000 </r>
       <r>   -6.2419    1.0000 </r>
       <r>   -6.2419    1.0000 </r>
       <r>   -3.7264    1.0000 </r>
       <r>   -2.9606    1.0000 </r>
       <r>   -2.9606    1.0000 </r>
       <r>   -2.8179    1.0000 </r>
       <r>   -2.2136    1.0000 </r>
       <r>   -2.2136    1.0000 </r>
       <r>    2.9356    0.0000 </r>
       <r>    8.8225    0.0000 </r>
       <r>   11.4238    0.0000 </r>
       <r>   11.4238    0.0000 </r>
       <r>   16.6690    0.0000 </r>
      </set>
      <set comment="kpoint 4">
       <r>  -22.0808    1.0000 </r>
       <r>  -21.4268    1.0000 </r>
       <r>   -7.0291    1.0000 </r>
       <r>   -7.0291    1.0000 </r>
       <r>   -6.6760    1.0000 </r>
       <r>   -6.2419    1.0000 </r>
       <r>   -6.2419    1.0000 </r>
       <r>   -3.7264    1.0000 </r>
       <r>   -2.9606    1.0000 </r>
       <r>   -2.9606    1.0000 </r>
       <r>   -2.8179    1.0000 </r>
       <r>   -2.2136    1.0000 </r>
       <r>   -2.2136    1.0000 </r>
       <r>    2.9356    0.0000 </r>
       <r>    8.8225    0.0000 </r>
       <r>   11.4238    0.0000 </r>
       <r>   11.4238    0.0000 </r>
       <r>   16.6690    0.0000 </r>
      </set>
      <set comment="kpoint 5">
       <r>  -21.8268    1.0000 </r>
       <r>  -21.6370    1.0000 </r>
       <r>   -6.7784    1.0000 </r>
       <r>   -6.6816    1.0000 </r>
       <r>   -6.3902    1.0000 </r>
       <r>   -6.1696    1.0000 </r>
       <r>   -6.1142    1.0000 </r>
       <r>   -4.7563    1.0000 </r>
       <r>   -3.8496    1.0000 </r>
       <r>   -3.8331    1.0000 </r>
       <r>   -2.5840    1.0000 </r>
       <r>   -2.1104    1.0000 </r>
       <r>   -1.9809    1.0000 </r>
       <r>    5.2270    0.0000 </r>
       <r>    7.9981    0.0000 </r>
       <r>   10.6127    0.0000 </r>
       <r>   12.1041    0.0000 </r>
       <r>   12.7686    0.0000 </r>
      </set>
      <set comment="kpoint 6">
       <r>  -21.8268    1.0000 </r>
       <r>  -21.6370    1.0000 </r>
       <r>   -6.7784    1.0000 </r>
       <r>   -6.6816    1.0000 </r>
       <r>   -6.3902    1.0000 </r>
       <r>   -6.1696    1.0000 </r>
       <r>   -6.1142    1.0000 </r>
       <r>   -4.7563    1.0000 </r>
       <r>   -3.8496    1.0000 </r>
       <r>   -3.8331    1.0000 </r>
       <r>   -2.5840    1.0000 </r>
       <r>   -2.1104    1.0000 </r>
       <r>   -1.9809    1.0000 </r>
       <r>    5.2270    0.0000 </r>
       <r>    7.9981    0.0000 </r>
       <r>   10.6127    0.0000 </r>
       <r>   12.1041    0.0000 </r>
       <r>   12.7686    0.0000 </r>
      </set>
      <set comment="kpoint 7">
       <r>  -21.8268    1.0000 </r>
       <r>  -21.6370    1.0000 </r>
       <r>   -6.7784    1.0000 </r>
       <r>   -6.6816    1.0000 </r>
       <r>   -6.3902    1.0000 </r>
       <r>   -6.1696    1.0000 </r>
       <r>   -6.1142    1.0000 </r>
       <r>   -4.7563    1.0000 </r>
       <r>   -3.8496    1.0000 </r>
       <r>   -3.8331    1.0000 </r>
       <r>   -2.5840    1.0000 </r>
       <r>   -2.1104    1.0000 </r>
       <r>   -1.9809    1.0000 </r>
       <r>    5.2270    0.0000 </r>
       <r>    7.9981    0.0000 </r>
       <r>   10.6127    0.0000 </r>
       <r>   12.1041    0.0000 </r>
       <r>   12.7686    0.0000 </r>
      </set>
      <set comment="kpoint 8">
       <r>  -21.8268    1.0000 </r>
       <r>  -21.6370    1.0000 </r>
       <r>   -6.7784    1.0000 </r>
       <r>   -6.6816    1.0000 </r>
       <r>   -6.3902    1.0000 </r>
       <r>   -6.1696    1.0000 </r>
       <r>   -6.1142    1.0000 </r>
       <r>   -4.7563    1.0000 </r>
       <r>   -3.8496    1.0000 </r>
       <r>   -3.8331    1.0000 </r>
       <r>   -2.5840    1.0000 </r>
       <r>   -2.1104    1.0000 </r>
       <r>   -1.9809    1.0000 </r>
       <r>    5.2270    0.0000 </r>
       <r>    7.9981    0.0000 </r>
       <r>   10.6127    0.0000 </r>
       <r>   12.1041    0.0000 </r>
       <r>   12.7686    0.0000 </r>
      </set>
      <set comment="kpoint 9">
       <r>  -21.8268    1.0000 </r>
       <r>  -21.6370    1.0000 </r>
       <r>   -6.7784    1.0000 </r>
       <r>   -6.6816    1.0000 </r>
       <r>   -6.3902    1.0000 </r>
       <r>   -6.1696    1.0000 </r>
       <r>   -6.1142    1.0000 </r>
       <r>   -4.7563    1.0000 </r>
       <r>   -3.8496    1.0000 </r>
       <r>   -3.8331    1.0000 </r>
       <r>   -2.5840    1.0000 </r>
       <r>   -2.1104    1.0000 </r>
       <r>   -1.9809    1.0000 </r>
       <r>    5.2270    0.0000 </r>
       <r>    7.9981    0.0000 </r>
       <r>   10.6127    0.0000 </r>
       <r>   12.1041    0.0000 </r>
       <r>   12.7686    0.0000 </r>
      </set>
      <set comment="kpoint 10">
       <r>  -21.8268    1.0000 </r>
       <r>  -21.6370    1.0000 </r>
       <r>   -6.7784    1.0000 </r>
       <r>   -6.6816    1.0000 </r>
       <r>   -6.3902    1.0000 </r>
       <r>   -6.1696    1.0000 </r>
       <r>   -6.1142    1.0000 </r>
       <r>   -4.7563    1.0000 </r>
       <r>   -3.8496    1.0000 </r>
       <r>   -3.8331    1.0000 </r>
       <r>   -2.5840    1.0000 </r>
       <r>   -2.1104    1.0000 </r>
       <r>   -1.9809    1.0000 </r>
       <r>    5.2270    0.0000 </r>
       <r>    7.9981    0.0000 </r>
       <r>   10.6127    0.0000 </r>
       <r>   12.1041    0.0000 </r>
       <r>   12.7686    0.0000 </r>
      </set>
      <set comment="kpoint 11">
       <r>  -21.8268    1.0000 </r>
       <r>  -21.6370    1.0000 </r>
       <r>   -6.7784    1.0000 </r>
       <r>   -6.6816    1.0000 </r>
       <r>   -6.3902    1.0000 </r>
       <r>   -6.1696    1.0000 </r>
       <r>   -6.1142    1.0000 </r>
       <r>   -4.7563    1.0000 </r>
       <r>   -3.8496    1.0000 </r>
       <r>   -3.8331    1.0000 </r>
       <r>   -2.5840    1.0000 </r>
       <r>   -2.1104    1.0000 </r>
       <r>   -1.9809    1.0000 </r>
       <r>    5.2270    0.0000 </r>
       <r>    7.9981    0.0000 </r>
       <r>   10.6127    0.0000 </r>
       <r>   12.1041    0.0000 </r>
       <r>   12.7686    0.0000 </r>
      </set>
      <set comment="kpoint 12">
       <r>  -21.8268    1.0000 </r>
       <r>  -21.6370    1.0000 </r>
       <r>   -6.7784    1.0000 </r>
       <r>   -6.6816    1.0000 </r>
       <r>   -6.3902    1.0000 </r>
       <r>   -6.1696    1.0000 </r>
       <r>   -6.1142    1.0000 </r>
       <r>   -4.7563    1.0000 </r>
       <r>   -3.8496    1.0000 </r>
       <r>   -3.8331    1.0000 </r>
       <r>   -2.5840    1.0000 </r>
       <r>   -2.1104    1.0000 </r>
       <r>   -1.9809    1.0000 </r>
       <r>    5.2270    0.0000 </r>
       <r>    7.9981    0.0000 </r>
       <r>   10.6127    0.0000 </r>
       <r>   12.1041    0.0000 </r>
       <r>   12.7686    0.0000 </r>
      </set>
      <set comment="kpoint 13">
       <r>  -21.8268    1.0000 </r>
       <r>  -21.6370    1.0000 </r>
       <r>   -6.7784    1.0000 </r>
       <r>   -6.6816    1.0000 </r>
       <r>   -6.3902    1.0000 </r>
       <r>   -6.1696    1.0000 </r>
       <r>   -6.1142    1.0000 </r>
       <r>   -4.7563    1.0000 </r>
       <r>   -3.8496    1.0000 </r>
       <r>   -3.8331    1.0000 </r>
       <r>   -2.5840    1.0000 </r>
       <r>   -2.1104    1.0000 </r>
       <r>   -1.9809    1.0000 </r>
       <r>    5.2270    0.0000 </r>
       <r>    7.9981    0.0000 </r>
       <r>   10.6127    0.0000 </r>
       <r>   12.1041    0.0000 </r>
       <r>   12.7686    0.0000 </r>
      </set>
      <set comment="kpoint 14">
       <r>  -21.8268    1.0000 </r>
       <r>  -21.6370    1.0000 </r>
       <r>   -6.7784    1.0000 </r>
       <r>   -6.6816    1.0000 </r>
       <r>   -6.3902    1.0000 </r>
       <r>   -6.1696    1.0000 </r>
       <r>   -6.1142    1.0000 </r>
       <r>   -4.7563    1.0000 </r>
       <r>   -3.8496    1.0000 </r>
       <r>   -3.8331    1.0000 </r>
       <r>   -2.5840    1.0000 </r>
       <r>   -2.1104    1.0000 </r>
       <r>   -1.9809    1.0000 </r>
       <r>    5.2270    0.0000 </r>
       <r>    7.9981    0.0000 </r>
       <r>   10.6127    0.0000 </r>
       <r>   12.1041    0.0000 </r>
       <r>   12.7686    0.0000 </r>
      </set>
      <set comment="kpoint 15">
       <r>  -21.8268    1.0000 </r>
       <r>  -21.6370    1.0000 </r>
       <r>   -6.7784    1.0000 </r>
       <r>   -6.6816    1.0000 </r>
       <r>   -6.3902    1.0000 </r>
       <r>   -6.1696    1.0000 </r>
       <r>   -6.1142    1.0000 </r>
       <r>   -4.7563    1.0000 </r>
       <r>   -3.8496    1.0000 </r>
       <r>   -3.8331    1.0000 </r>
       <r>   -2.5840    1.0000 </r>
       <r>   -2.1104    1.0000 </r>
       <r>   -1.9809    1.0000 </r>
       <r>    5.2270    0.0000 </r>
       <r>    7.9981    0.0000 </r>
       <r>   10.6127    0.0000 </r>
       <r>   12.1041    0.0000 </r>
       <r>   12.7686    0.0000 </r>
      </set>
      <set comment="kpoint 16">
       <r>  -21.8268    1.0000 </r>
       <r>  -21.6370    1.0000 </r>
       <r>   -6.7784    1.0000 </r>
       <r>   -6.6816    1.0000 </r>
       <r>   -6.3902    1.0000 </r>
       <r>   -6.1696    1.0000 </r>
       <r>   -6.1142    1.0000 </r>
       <r>   -4.7563    1.0000 </r>
       <r>   -3.8496    1.0000 </r>
       <r>   -3.8331    1.0000 </r>
       <r>   -2.5840    1.0000 </r>
       <r>   -2.1104    1.0000 </r>
       <r>   -1.9809    1.0000 </r>
       <r>    5.2270    0.0000 </r>
       <r>    7.9981    0.0000 </r>
       <r>   10.6127    0.0000 </r>
       <r>   12.1041    0.0000 </r>
       <r>   12.7686    0.0000 </r>
      </set>
     </set>
     <set comment="spin 2">
      <set comment="kpoint 1">
       <r>  -22.0808    1.0000 </r>
       <r>  -21.4268    1.0000 </r>
       <r>   -7.0291    1.0000 </r>
       <r>   -7.0291    1.0000 </r>
       <r>   -6.6760    1.0000 </r>
       <r>   -6.2419    1.0000 </r>
       <r>   -6.2419    1.0000 </r>
       <r>   -3.7264    1.0000 </r>
       <r>   -2.9606    1.0000 </r>
       <r>   -2.9606    1.0000 </r>
       <r>   -2.8179    1.0000 </r>
       <r>   -2.2136    1.0000 </r>
       <r>   -2.2136    1.0000 </r>
       <r>    2.9356    0.0000 </r>
       <r>    8.8225    0.0000 </r>
       <r>   11.4238    0.0000 </r>
       <r>   11.4238    0.0000 </r>
       <r>   16.6690    0.0000 </r>
      </set>
      <set comment="kpoint 2">
       <r>  -22.0808    1.0000 </r>
       <r>  -21.4268    1.0000 </r>
       <r>   -7.0291    1.0000 </r>
       <r>   -7.0291    1.0000 </r>
       <r>   -6.6760    1.0000 </r>
       <r>   -6.2419    1.0000 </r>
       <r>   -6.2419    1.0000 </r>
       <r>   -3.7264    1.0000 </r>
       <r>   -2.9606    1.0000 </r>
       <r>   -2.9606    1.0000 </r>
       <r>   -2.8179    1.0000 </r>
       <r>   -2.2136    1.0000 </r>
       <r>   -2.2136    1.0000 </r>
       <r>    2.9356    0.0000 </r>
       <r>    8.8225    0.0000 </r>
       <r>   11.4238    0.0000 </r>
       <r>   11.4238    0.0000 </r>
       <r>   16.6690    0.0000 </r>
      </set>
      <set comment="kpoint 3">
       <r>  -22.0808    1.0000 </r>
       <r>  -21.4268    1.0000 </r>
       <r>   -7.0291    1.0000 </r>
       <r>   -7.0291    1.0000 </r>
       <r>   -6.6760    1.0000 </r>
       <r>   -6.2419    1.0000 </r>
       <r>   -6.2419    1.0000 </r>
       <r>   -3.7264    1.0000 </r>
       <r>   -2.9606    1.0000 </r>
       <r>   -2.9606    1.0000 </r>
       <r>   -2.8179    1.0000 </r>
       <r>   -2.2136    1.0000 </r>
       <r>   -2.2136    1.0000 </r>
       <r>    2.9356    0.0000 </r>
       <r>    8.8225    0.0000 </r>
       <r>   11.4238    0.0000 </r>
       <r>   11.4238    0.0000 </r>
       <r>   16.6690    0.0000 </r>
      </set>
      <set comment="kpoint 4">
       <r>  -22.0808    1.0000 </r>
       <r>  -21.4268    1.0000 </r>
       <r>   -7.0291    1.0000 </r>
       <r>   -7.0291    1.0000 </r>
       <r>   -6.6760    1.0000 </r>
       <r>   -6.2419    1.0000 </r>
       <r>   -6.2419    1.0000 </r>
       <r>   -3.7264    1.0000 </r>
       <r>   -2.9606    1.0000 </r>
       <r>   -2.9606    1.0000 </r>
       <r>   -2.8179    1.0000 </r>
       <r>   -2.2136    1.0000 </r>
       <r>   -2.2136    1.0000 </r>
       <r>    2.9356    0.0000 </r>
       <r>    8.8225    0.0000 </r>
       <r>   11.4238    0.0000 </r>
       <r>   11.4238    0.0000 </r>
       <r>   16.6690    0.0000 </r>
      </set>
      <set comment="kpoint 5">
       <r>  -21.8268    1.0000 </r>
       <r>  -21.6370    1.0000 </r>
       <r>   -6.7784    1.0000 </r>
       <r>   -6.6816    1.0000 </r>
       <r>   -6.3902    1.0000 </r>
       <r>   -6.1696    1.0000 </r>
       <r>   -6.1142    1.0000 </r>
       <r>   -4.7563    1.0000 </r>
       <r>   -3.8496    1.0000 </r>
       <r>   -3.8331    1.0000 </r>
       <r>   -2.5840    1.0000 </r>
       <r>   -2.1104    1.0000 </r>
       <r>   -1.9809    1.0000 </r>
       <r>    5.2270    0.0000 </r>
       <r>    7.9981    0.0000 </r>
       <r>   10.6127    0.0000 </r>
       <r>   12.1041    0.0000 </r>
       <r>   12.7686    0.0000 </r>
      </set>
      <set comment="kpoint 6">
       <r>  -21.8268    1.0000 </r>
       <r>  -21.6370    1.0000 </r>
       <r>   -6.7784    1.0000 </r>
       <r>   -6.6816    1.0000 </r>
       <r>   -6.3902    1.0000 </r>
       <r>   -6.1696    1.0000 </r>
       <r>   -6.1142    1.0000 </r>
       <r>   -4.7563    1.0000 </r>
       <r>   -3.8496    1.0000 </r>
       <r>   -3.8331    1.0000 </r>
       <r>   -2.5840    1.0000 </r>
       <r>   -2.1104    1.0000 </r>
       <r>   -1.9809    1.0000 </r>
       <r>    5.2270    0.0000 </r>
       <r>    7.9981    0.0000 </r>
       <r>   10.6127    0.0000 </r>
       <r>   12.1041    0.0000 </r>
       <r>   12.7686    0.0000 </r>
      </set>
      <set comment="kpoint 7">
       <r>  -21.8268    1.0000 </r>
       <r>  -21.6370    1.0000 </r>
       <r>   -6.7784    1.0000 </r>
       <r>   -6.6816    1.0000 </r>
       <r>   -6.3902    1.0000 </r>
       <r>   -6.1696    1.0000 </r>
       <r>   -6.1142    1.0000 </r>
       <r>   -4.7563    1.0000 </r>
       <r>   -3.8496    1.0000 </r>
       <r>   -3.8331    1.0000 </r>
       <r>   -2.5840    1.0000 </r>
       <r>   -2.1104    1.0000 </r>
       <r>   -1.9809    1.0000 </r>
       <r>    5.2270    0.0000 </r>
       <r>    7.9981    0.0000 </r>
       <r>   10.6127    0.0000 </r>
       <r>   12.1041    0.0000 </r>
       <r>   12.7686    0.0000 </r>
      </set>
      <set comment="kpoint 8">
       <r>  -21.8268    1.0000 </r>
       <r>  -21.6370    1.0000 </r>
       <r>   -6.7784    1.0000 </r>
       <r>   -6.6816    1.0000 </r>
       <r>   -6.3902    1.0000 </r>
       <r>   -6.1696    1.0000 </r>
       <r>   -6.1142    1.0000 </r>
       <r>   -4.7563    1.0000 </r>
       <r>   -3.8496    1.0000 </r>
       <r>   -3.8331    1.0000 </r>
       <r>   -2.5840    1.0000 </r>
       <r>   -2.1104    1.0000 </r>
       <r>   -1.9809    1.0000 </r>
       <r>    5.2270    0.0000 </r>
       <r>    7.9981    0.0000 </r>
       <r>   10.6127    0.0000 </r>
       <r>   12.1041    0.0000 </r>
       <r>   12.7686    0.0000 </r>
      </set>
      <set comment="kpoint 9">
       <r>  -21.8268    1.0000 </r>
       <r>  -21.6370    1.0000 </r>
       <r>   -6.7784    1.0000 </r>
       <r>   -6.6816    1.0000 </r>
       <r>   -6.3902    1.0000 </r>
       <r>   -6.1696    1.0000 </r>
       <r>   -6.1142    1.0000 </r>
       <r>   -4.7563    1.0000 </r>
       <r>   -3.8496    1.0000 </r>
       <r>   -3.8331    1.0000 </r>
       <r>   -2.5840    1.0000 </r>
       <r>   -2.1104    1.0000 </r>
       <r>   -1.9809    1.0000 </r>
       <r>    5.2270    0.0000 </r>
       <r>    7.9981    0.0000 </r>
       <r>   10.6127    0.0000 </r>
       <r>   12.1041    0.0000 </r>
       <r>   12.7686    0.0000 </r>
      </set>
      <set comment="kpoint 10">
       <r>  -21.8268    1.0000 </r>
       <r>  -21.6370    1.0000 </r>
       <r>   -6.7784    1.0000 </r>
       <r>   -6.6816    1.0000 </r>
       <r>   -6.3902    1.0000 </r>
       <r>   -6.1696    1.0000 </r>
       <r>   -6.1142    1.0000 </r>
       <r>   -4.7563    1.0000 </r>
       <r>   -3.8496    1.0000 </r>
       <r>   -3.8331    1.0000 </r>
       <r>   -2.5840    1.0000 </r>
       <r>   -2.1104    1.0000 </r>
       <r>   -1.9809    1.0000 </r>
       <r>    5.2270    0.0000 </r>
       <r>    7.9981    0.0000 </r>
       <r>   10.6127    0.0000 </r>
       <r>   12.1041    0.0000 </r>
       <r>   12.7686    0.0000 </r>
      </set>
      <set comment="kpoint 11">
       <r>  -21.8268    1.0000 </r>
       <r>  -21.6370    1.0000 </r>
       <r>   -6.7784    1.0000 </r>
       <r>   -6.6816    1.0000 </r>
       <r>   -6.3902    1.0000 </r>
       <r>   -6.1696    1.0000 </r>
       <r>   -6.1142    1.0000 </r>
       <r>   -4.7563    1.0000 </r>
       <r>   -3.8496    1.0000 </r>
       <r>   -3.8331    1.0000 </r>
       <r>   -2.5840    1.0000 </r>
       <r>   -2.1104    1.0000 </r>
       <r>   -1.9809    1.0000 </r>
       <r>    5.2270    0.0000 </r>
       <r>    7.9981    0.0000 </r>
       <r>   10.6127    0.0000 </r>
       <r>   12.1041    0.0000 </r>
       <r>   12.7686    0.0000 </r>
      </set>
      <set comment="kpoint 12">
       <r>  -21.8268    1.0000 </r>
       <r>  -21.6370    1.0000 </r>
       <r>   -6.7784    1.0000 </r>
       <r>   -6.6816    1.0000 </r>
       <r>   -6.3902    1.0000 </r>
       <r>   -6.1696    1.0000 </r>
       <r>   -6.1142    1.0000 </r>
       <r>   -4.7563    1.0000 </r>
       <r>   -3.8496    1.0000 </r>
       <r>   -3.8331    1.0000 </r>
       <r>   -2.5840    1.0000 </r>
       <r>   -2.1104    1.0000 </r>
       <r>   -1.9809    1.0000 </r>
       <r>    5.2270    0.0000 </r>
       <r>    7.9981    0.0000 </r>
       <r>   10.6127    0.0000 </r>
       <r>   12.1041    0.0000 </r>
       <r>   12.7686    0.0000 </r>
      </set>
      <set comment="kpoint 13">
       <r>  -21.8268    1.0000 </r>
       <r>  -21.6370    1.0000 </r>
       <r>   -6.7784    1.0000 </r>
       <r>   -6.6816    1.0000 </r>
       <r>   -6.3902    1.0000 </r>
       <r>   -6.1696    1.0000 </r>
       <r>   -6.1142    1.0000 </r>
       <r>   -4.7563    1.0000 </r>
       <r>   -3.8496    1.0000 </r>
       <r>   -3.8331    1.0000 </r>
       <r>   -2.5840    1.0000 </r>
       <r>   -2.1104    1.0000 </r>
       <r>   -1.9809    1.0000 </r>
       <r>    5.2270    0.0000 </r>
       <r>    7.9981    0.0000 </r>
       <r>   10.6127    0.0000 </r>
       <r>   12.1041    0.0000 </r>
       <r>   12.7686    0.0000 </r>
      </set>
      <set comment="kpoint 14">
       <r>  -21.8268    1.0000 </r>
       <r>  -21.6370    1.0000 </r>
       <r>   -6.7784    1.0000 </r>
       <r>   -6.6816    1.0000 </r>
       <r>   -6.3902    1.0000 </r>
       <r>   -6.1696    1.0000 </r>
       <r>   -6.1142    1.0000 </r>
       <r>   -4.7563    1.0000 </r>
       <r>   -3.8496    1.0000 </r>
       <r>   -3.8331    1.0000 </r>
       <r>   -2.5840    1.0000 </r>
       <r>   -2.1104    1.0000 </r>
       <r>   -1.9809    1.0000 </r>
       <r>    5.2270    0.0000 </r>
       <r>    7.9981    0.0000 </r>
       <r>   10.6127    0.0000 </r>
       <r>   12.1041    0.0000 </r>
       <r>   12.7686    0.0000 </r>
      </set>
      <set comment="kpoint 15">
       <r>  -21.8268    1.0000 </r>
       <r>  -21.6370    1.0000 </r>
       <r>   -6.7784    1.0000 </r>
       <r>   -6.6816    1.0000 </r>
       <r>   -6.3902    1.0000 </r>
       <r>   -6.1696    1.0000 </r>
       <r>   -6.1142    1.0000 </r>
       <r>   -4.7563    1.0000 </r>
       <r>   -3.8496    1.0000 </r>
       <r>   -3.8331    1.0000 </r>
       <r>   -2.5840    1.0000 </r>
       <r>   -2.1104    1.0000 </r>
       <r>   -1.9809    1.0000 </r>
       <r>    5.2270    0.0000 </r>
       <r>    7.9981    0.0000 </r>
       <r>   10.6127    0.0000 </r>
       <r>   12.1041    0.0000 </r>
       <r>   12.7686    0.0000 </r>
      </set>
      <set comment="kpoint 16">
       <r>  -21.8268    1.0000 </r>
       <r>  -21.6370    1.0000 </r>
       <r>   -6.7784    1.0000 </r>
       <r>   -6.6816    1.0000 </r>
       <r>   -6.3902    1.0000 </r>
       <r>   -6.1696    1.0000 </r>
       <r>   -6.1142    1.0000 </r>
       <r>   -4.7563    1.0000 </r>
       <r>   -3.8496    1.0000 </r>
       <r>   -3.8331    1.0000 </r>
       <r>   -2.5840    1.0000 </r>
       <r>   -2.1104    1.0000 </r>
       <r>   -1.9809    1.0000 </r>
       <r>    5.2270    0.0000 </r>
       <r>    7.9981    0.0000 </r>
       <r>   10.6127    0.0000 </r>
       <r>   12.1041    0.0000 </r>
       <r>   12.7686    0.0000 </r>
      </set>
     </set>
    </set>
   </array>
  </eigenvalues>
  <separator name="orbital magnetization" >
   <v name="MAGDIPOLOUT">      0.00000000      0.00000000      0.00000000</v>
  </separator>
  <dos>
   <i name="efermi">     -1.92444085 </i>
   <total>
    <array>
     <dimension dim="1">gridpoints</dimension>
     <dimension dim="2">spin</dimension>
     <field>energy</field>
     <field>total</field>
     <field>integrated</field>
     <set>
      <set comment="spin 1">
       <r>   -24.0183     0.0000     0.0000 </r>
       <r>   -23.8762     0.0000     0.0000 </r>
       <r>   -23.7341     0.0000     0.0000 </r>
       <r>   -23.5920     0.0000     0.0000 </r>
       <r>   -23.4499     0.0000     0.0000 </r>
       <r>   -23.3078     0.0000     0.0000 </r>
       <r>   -23.1658     0.0000     0.0000 </r>
       <r>   -23.0237     0.0000     0.0000 </r>
       <r>   -22.8816     0.0000     0.0000 </r>
       <r>   -22.7395     0.0000     0.0000 </r>
       <r>   -22.5974     0.0000     0.0000 </r>
       <r>   -22.4553     0.0000     0.0000 </r>
       <r>   -22.3133     0.0000     0.0000 </r>
       <r>   -22.1712     0.0000     0.0000 </r>
       <r>   -22.0291     1.3389     0.0849 </r>
       <r>   -21.8870     2.9907     0.3925 </r>
       <r>   -21.7449     0.0000     1.0000 </r>
       <r>   -21.6029     3.8814     1.5485 </r>
       <r>   -21.4608     1.4692     1.9286 </r>
       <r>   -21.3187     0.0000     2.0000 </r>
       <r>   -21.1766     0.0000     2.0000 </r>
       <r>   -21.0345     0.0000     2.0000 </r>
       <r>   -20.8924     0.0000     2.0000 </r>
       <r>   -20.7504     0.0000     2.0000 </r>
       <r>   -20.6083     0.0000     2.0000 </r>
       <r>   -20.4662     0.0000     2.0000 </r>
       <r>   -20.3241     0.0000     2.0000 </r>
       <r>   -20.1820     0.0000     2.0000 </r>
       <r>   -20.0399     0.0000     2.0000 </r>
       <r>   -19.8979     0.0000     2.0000 </r>
       <r>   -19.7558     0.0000     2.0000 </r>
       <r>   -19.6137     0.0000     2.0000 </r>
       <r>   -19.4716     0.0000     2.0000 </r>
       <r>   -19.3295     0.0000     2.0000 </r>
       <r>   -19.1875     0.0000     2.0000 </r>
       <r>   -19.0454     0.0000     2.0000 </r>
       <r>   -18.9033     0.0000     2.0000 </r>
       <r>   -18.7612     0.0000     2.0000 </r>
       <r>   -18.6191     0.0000     2.0000 </r>
       <r>   -18.4770     0.0000     2.0000 </r>
       <r>   -18.3350     0.0000     2.0000 </r>
       <r>   -18.1929     0.0000     2.0000 </r>
       <r>   -18.0508     0.0000     2.0000 </r>
       <r>   -17.9087     0.0000     2.0000 </r>
       <r>   -17.7666     0.0000     2.0000 </r>
       <r>   -17.6245     0.0000     2.0000 </r>
       <r>   -17.4825     0.0000     2.0000 </r>
       <r>   -17.3404     0.0000     2.0000 </r>
       <r>   -17.1983     0.0000     2.0000 </r>
       <r>   -17.0562     0.0000     2.0000 </r>
       <r>   -16.9141     0.0000     2.0000 </r>
       <r>   -16.7721     0.0000     2.0000 </r>
       <r>   -16.6300     0.0000     2.0000 </r>
       <r>   -16.4879     0.0000     2.0000 </r>
       <r>   -16.3458     0.0000     2.0000 </r>
       <r>   -16.2037     0.0000     2.0000 </r>
       <r>   -16.0616     0.0000     2.0000 </r>
       <r>   -15.9196     0.0000     2.0000 </r>
       <r>   -15.7775     0.0000     2.0000 </r>
       <r>   -15.6354     0.0000     2.0000 </r>
       <r>   -15.4933     0.0000     2.0000 </r>
       <r>   -15.3512     0.0000     2.0000 </r>
       <r>   -15.2091     0.0000     2.0000 </r>
       <r>   -15.0671     0.0000     2.0000 </r>
       <r>   -14.9250     0.0000     2.0000 </r>
       <r>   -14.7829     0.0000     2.0000 </r>
       <r>   -14.6408     0.0000     2.0000 </r>
       <r>   -14.4987     0.0000     2.0000 </r>
       <r>   -14.3567     0.0000     2.0000 </r>
       <r>   -14.2146     0.0000     2.0000 </r>
       <r>   -14.0725     0.0000     2.0000 </r>
       <r>   -13.9304     0.0000     2.0000 </r>
       <r>   -13.7883     0.0000     2.0000 </r>
       <r>   -13.6462     0.0000     2.0000 </r>
       <r>   -13.5042     0.0000     2.0000 </r>
       <r>   -13.3621     0.0000     2.0000 </r>
       <r>   -13.2200     0.0000     2.0000 </r>
       <r>   -13.0779     0.0000     2.0000 </r>
       <r>   -12.9358     0.0000     2.0000 </r>
       <r>   -12.7937     0.0000     2.0000 </r>
       <r>   -12.6517     0.0000     2.0000 </r>
       <r>   -12.5096     0.0000     2.0000 </r>
       <r>   -12.3675     0.0000     2.0000 </r>
       <r>   -12.2254     0.0000     2.0000 </r>
       <r>   -12.0833     0.0000     2.0000 </r>
       <r>   -11.9412     0.0000     2.0000 </r>
       <r>   -11.7992     0.0000     2.0000 </r>
       <r>   -11.6571     0.0000     2.0000 </r>
       <r>   -11.5150     0.0000     2.0000 </r>
       <r>   -11.3729     0.0000     2.0000 </r>
       <r>   -11.2308     0.0000     2.0000 </r>
       <r>   -11.0888     0.0000     2.0000 </r>
       <r>   -10.9467     0.0000     2.0000 </r>
       <r>   -10.8046     0.0000     2.0000 </r>
       <r>   -10.6625     0.0000     2.0000 </r>
       <r>   -10.5204     0.0000     2.0000 </r>
       <r>   -10.3783     0.0000     2.0000 </r>
       <r>   -10.2363     0.0000     2.0000 </r>
       <r>   -10.0942     0.0000     2.0000 </r>
       <r>    -9.9521     0.0000     2.0000 </r>
       <r>    -9.8100     0.0000     2.0000 </r>
       <r>    -9.6679     0.0000     2.0000 </r>
       <r>    -9.5258     0.0000     2.0000 </r>
       <r>    -9.3838     0.0000     2.0000 </r>
       <r>    -9.2417     0.0000     2.0000 </r>
       <r>    -9.0996     0.0000     2.0000 </r>
       <r>    -8.9575     0.0000     2.0000 </r>
       <r>    -8.8154     0.0000     2.0000 </r>
       <r>    -8.6734     0.0000     2.0000 </r>
       <r>    -8.5313     0.0000     2.0000 </r>
       <r>    -8.3892     0.0000     2.0000 </r>
       <r>    -8.2471     0.0000     2.0000 </r>
       <r>    -8.1050     0.0000     2.0000 </r>
       <r>    -7.9629     0.0000     2.0000 </r>
       <r>    -7.8209     0.0000     2.0000 </r>
       <r>    -7.6788     0.0000     2.0000 </r>
       <r>    -7.5367     0.0000     2.0000 </r>
       <r>    -7.3946     0.0000     2.0000 </r>
       <r>    -7.2525     0.0000     2.0000 </r>
       <r>    -7.1104     0.0000     2.0000 </r>
       <r>    -6.9684     2.3896     2.1741 </r>
       <r>    -6.8263     4.9686     2.6969 </r>
       <r>    -6.6842     2.6819     3.5868 </r>
       <r>    -6.5421     1.8858     4.2014 </r>
       <r>    -6.4000     3.1909     4.5620 </r>
       <r>    -6.2580     0.0000     5.0000 </r>
       <r>    -6.1159     7.2598     6.5813 </r>
       <r>    -5.9738     0.0000     7.0000 </r>
       <r>    -5.8317     0.0000     7.0000 </r>
       <r>    -5.6896     0.0000     7.0000 </r>
       <r>    -5.5475     0.0000     7.0000 </r>
       <r>    -5.4055     0.0000     7.0000 </r>
       <r>    -5.2634     0.0000     7.0000 </r>
       <r>    -5.1213     0.0000     7.0000 </r>
       <r>    -4.9792     0.0000     7.0000 </r>
       <r>    -4.8371     0.0000     7.0000 </r>
       <r>    -4.6950     0.8670     7.4606 </r>
       <r>    -4.5530     0.7665     7.5767 </r>
       <r>    -4.4109     0.6661     7.6785 </r>
       <r>    -4.2688     0.5656     7.7660 </r>
       <r>    -4.1267     0.4651     7.8392 </r>
       <r>    -3.9846     0.3647     7.8981 </r>
       <r>    -3.8426     1.3121     8.3565 </r>
       <r>    -3.7005     1.8570     9.0930 </r>
       <r>    -3.5584     1.5821     9.3374 </r>
       <r>    -3.4163     1.3073     9.5426 </r>
       <r>    -3.2742     1.0324     9.7088 </r>
       <r>    -3.1321     0.7576     9.8360 </r>
       <r>    -2.9901     0.4828     9.9241 </r>
       <r>    -2.8480     0.0000    10.0000 </r>
       <r>    -2.7059     2.3375    10.2071 </r>
       <r>    -2.5638     0.0000    11.0000 </r>
       <r>    -2.4217     0.0000    11.0000 </r>
       <r>    -2.2796     0.0000    11.0000 </r>
       <r>    -2.1376     9.0283    11.5052 </r>
       <r>    -1.9955     3.8275    12.5365 </r>
       <r>    -1.8534     0.0000    13.0000 </r>
       <r>    -1.7113     0.0000    13.0000 </r>
       <r>    -1.5692     0.0000    13.0000 </r>
       <r>    -1.4272     0.0000    13.0000 </r>
       <r>    -1.2851     0.0000    13.0000 </r>
       <r>    -1.1430     0.0000    13.0000 </r>
       <r>    -1.0009     0.0000    13.0000 </r>
       <r>    -0.8588     0.0000    13.0000 </r>
       <r>    -0.7167     0.0000    13.0000 </r>
       <r>    -0.5747     0.0000    13.0000 </r>
       <r>    -0.4326     0.0000    13.0000 </r>
       <r>    -0.2905     0.0000    13.0000 </r>
       <r>    -0.1484     0.0000    13.0000 </r>
       <r>    -0.0063     0.0000    13.0000 </r>
       <r>     0.1358     0.0000    13.0000 </r>
       <r>     0.2778     0.0000    13.0000 </r>
       <r>     0.4199     0.0000    13.0000 </r>
       <r>     0.5620     0.0000    13.0000 </r>
       <r>     0.7041     0.0000    13.0000 </r>
       <r>     0.8462     0.0000    13.0000 </r>
       <r>     0.9882     0.0000    13.0000 </r>
       <r>     1.1303     0.0000    13.0000 </r>
       <r>     1.2724     0.0000    13.0000 </r>
       <r>     1.4145     0.0000    13.0000 </r>
       <r>     1.5566     0.0000    13.0000 </r>
       <r>     1.6987     0.0000    13.0000 </r>
       <r>     1.8407     0.0000    13.0000 </r>
       <r>     1.9828     0.0000    13.0000 </r>
       <r>     2.1249     0.0000    13.0000 </r>
       <r>     2.2670     0.0000    13.0000 </r>
       <r>     2.4091     0.0000    13.0000 </r>
       <r>     2.5512     0.0000    13.0000 </r>
       <r>     2.6932     0.0000    13.0000 </r>
       <r>     2.8353     0.0000    13.0000 </r>
       <r>     2.9774     0.0878    13.0348 </r>
       <r>     3.1195     0.1081    13.0487 </r>
       <r>     3.2616     0.1284    13.0655 </r>
       <r>     3.4036     0.1487    13.0852 </r>
       <r>     3.5457     0.1690    13.1078 </r>
       <r>     3.6878     0.1893    13.1332 </r>
       <r>     3.8299     0.2096    13.1615 </r>
       <r>     3.9720     0.2299    13.1928 </r>
       <r>     4.1141     0.2502    13.2269 </r>
       <r>     4.2561     0.2705    13.2639 </r>
       <r>     4.3982     0.2908    13.3037 </r>
       <r>     4.5403     0.3110    13.3465 </r>
       <r>     4.6824     0.3313    13.3921 </r>
       <r>     4.8245     0.3516    13.4406 </r>
       <r>     4.9666     0.3719    13.4920 </r>
       <r>     5.1086     0.3922    13.5463 </r>
       <r>     5.2507     0.0000    14.0000 </r>
       <r>     5.3928     0.0000    14.0000 </r>
       <r>     5.5349     0.0000    14.0000 </r>
       <r>     5.6770     0.0000    14.0000 </r>
       <r>     5.8190     0.0000    14.0000 </r>
       <r>     5.9611     0.0000    14.0000 </r>
       <r>     6.1032     0.0000    14.0000 </r>
       <r>     6.2453     0.0000    14.0000 </r>
       <r>     6.3874     0.0000    14.0000 </r>
       <r>     6.5295     0.0000    14.0000 </r>
       <r>     6.6715     0.0000    14.0000 </r>
       <r>     6.8136     0.0000    14.0000 </r>
       <r>     6.9557     0.0000    14.0000 </r>
       <r>     7.0978     0.0000    14.0000 </r>
       <r>     7.2399     0.0000    14.0000 </r>
       <r>     7.3820     0.0000    14.0000 </r>
       <r>     7.5240     0.0000    14.0000 </r>
       <r>     7.6661     0.0000    14.0000 </r>
       <r>     7.8082     0.0000    14.0000 </r>
       <r>     7.9503     0.0000    14.0000 </r>
       <r>     8.0924     1.0331    14.5086 </r>
       <r>     8.2345     0.8764    14.6442 </r>
       <r>     8.3765     0.7196    14.7576 </r>
       <r>     8.5186     0.5628    14.8487 </r>
       <r>     8.6607     0.4060    14.9175 </r>
       <r>     8.8028     0.2492    14.9641 </r>
       <r>     8.9449     0.0000    15.0000 </r>
       <r>     9.0869     0.0000    15.0000 </r>
       <r>     9.2290     0.0000    15.0000 </r>
       <r>     9.3711     0.0000    15.0000 </r>
       <r>     9.5132     0.0000    15.0000 </r>
       <r>     9.6553     0.0000    15.0000 </r>
       <r>     9.7974     0.0000    15.0000 </r>
       <r>     9.9394     0.0000    15.0000 </r>
       <r>    10.0815     0.0000    15.0000 </r>
       <r>    10.2236     0.0000    15.0000 </r>
       <r>    10.3657     0.0000    15.0000 </r>
       <r>    10.5078     0.0000    15.0000 </r>
       <r>    10.6499     1.1135    15.4484 </r>
       <r>    10.7919     0.9515    15.5951 </r>
       <r>    10.9340     0.7896    15.7188 </r>
       <r>    11.0761     0.6276    15.8195 </r>
       <r>    11.2182     0.4656    15.8971 </r>
       <r>    11.3603     0.3036    15.9518 </r>
       <r>    11.5023     0.4029    16.0579 </r>
       <r>    11.6444     0.6331    16.1315 </r>
       <r>    11.7865     0.8634    16.2378 </r>
       <r>    11.9286     1.0937    16.3768 </r>
       <r>    12.0707     1.3239    16.5486 </r>
       <r>    12.2128     0.0000    17.0000 </r>
       <r>    12.3548     0.0000    17.0000 </r>
       <r>    12.4969     0.0000    17.0000 </r>
       <r>    12.6390     0.0000    17.0000 </r>
       <r>    12.7811     0.2397    17.4092 </r>
       <r>    12.9232     0.2327    17.4428 </r>
       <r>    13.0653     0.2257    17.4754 </r>
       <r>    13.2073     0.2187    17.5070 </r>
       <r>    13.3494     0.2117    17.5375 </r>
       <r>    13.4915     0.2047    17.5671 </r>
       <r>    13.6336     0.1977    17.5957 </r>
       <r>    13.7757     0.1907    17.6233 </r>
       <r>    13.9177     0.1837    17.6499 </r>
       <r>    14.0598     0.1767    17.6755 </r>
       <r>    14.2019     0.1697    17.7001 </r>
       <r>    14.3440     0.1627    17.7237 </r>
       <r>    14.4861     0.1557    17.7464 </r>
       <r>    14.6282     0.1487    17.7680 </r>
       <r>    14.7702     0.1417    17.7886 </r>
       <r>    14.9123     0.1347    17.8082 </r>
       <r>    15.0544     0.1277    17.8269 </r>
       <r>    15.1965     0.1207    17.8445 </r>
       <r>    15.3386     0.1137    17.8612 </r>
       <r>    15.4807     0.1067    17.8768 </r>
       <r>    15.6227     0.0997    17.8915 </r>
       <r>    15.7648     0.0926    17.9051 </r>
       <r>    15.9069     0.0856    17.9178 </r>
       <r>    16.0490     0.0786    17.9295 </r>
       <r>    16.1911     0.0716    17.9401 </r>
       <r>    16.3331     0.0646    17.9498 </r>
       <r>    16.4752     0.0576    17.9585 </r>
       <r>    16.6173     0.0506    17.9662 </r>
       <r>    16.7594     0.0000    18.0000 </r>
       <r>    16.9015     0.0000    18.0000 </r>
       <r>    17.0436     0.0000    18.0000 </r>
       <r>    17.1856     0.0000    18.0000 </r>
       <r>    17.3277     0.0000    18.0000 </r>
       <r>    17.4698     0.0000    18.0000 </r>
       <r>    17.6119     0.0000    18.0000 </r>
       <r>    17.7540     0.0000    18.0000 </r>
       <r>    17.8961     0.0000    18.0000 </r>
       <r>    18.0381     0.0000    18.0000 </r>
       <r>    18.1802     0.0000    18.0000 </r>
       <r>    18.3223     0.0000    18.0000 </r>
       <r>    18.4644     0.0000    18.0000 </r>
       <r>    18.6065     0.0000    18.0000 </r>
      </set>
      <set comment="spin 2">
       <r>   -24.0183     0.0000     0.0000 </r>
       <r>   -23.8762     0.0000     0.0000 </r>
       <r>   -23.7341     0.0000     0.0000 </r>
       <r>   -23.5920     0.0000     0.0000 </r>
       <r>   -23.4499     0.0000     0.0000 </r>
       <r>   -23.3078     0.0000     0.0000 </r>
       <r>   -23.1658     0.0000     0.0000 </r>
       <r>   -23.0237     0.0000     0.0000 </r>
       <r>   -22.8816     0.0000     0.0000 </r>
       <r>   -22.7395     0.0000     0.0000 </r>
       <r>   -22.5974     0.0000     0.0000 </r>
       <r>   -22.4553     0.0000     0.0000 </r>
       <r>   -22.3133     0.0000     0.0000 </r>
       <r>   -22.1712     0.0000     0.0000 </r>
       <r>   -22.0291     1.3389     0.0849 </r>
       <r>   -21.8870     2.9907     0.3925 </r>
       <r>   -21.7449     0.0000     1.0000 </r>
       <r>   -21.6029     3.8814     1.5485 </r>
       <r>   -21.4608     1.4692     1.9286 </r>
       <r>   -21.3187     0.0000     2.0000 </r>
       <r>   -21.1766     0.0000     2.0000 </r>
       <r>   -21.0345     0.0000     2.0000 </r>
       <r>   -20.8924     0.0000     2.0000 </r>
       <r>   -20.7504     0.0000     2.0000 </r>
       <r>   -20.6083     0.0000     2.0000 </r>
       <r>   -20.4662     0.0000     2.0000 </r>
       <r>   -20.3241     0.0000     2.0000 </r>
       <r>   -20.1820     0.0000     2.0000 </r>
       <r>   -20.0399     0.0000     2.0000 </r>
       <r>   -19.8979     0.0000     2.0000 </r>
       <r>   -19.7558     0.0000     2.0000 </r>
       <r>   -19.6137     0.0000     2.0000 </r>
       <r>   -19.4716     0.0000     2.0000 </r>
       <r>   -19.3295     0.0000     2.0000 </r>
       <r>   -19.1875     0.0000     2.0000 </r>
       <r>   -19.0454     0.0000     2.0000 </r>
       <r>   -18.9033     0.0000     2.0000 </r>
       <r>   -18.7612     0.0000     2.0000 </r>
       <r>   -18.6191     0.0000     2.0000 </r>
       <r>   -18.4770     0.0000     2.0000 </r>
       <r>   -18.3350     0.0000     2.0000 </r>
       <r>   -18.1929     0.0000     2.0000 </r>
       <r>   -18.0508     0.0000     2.0000 </r>
       <r>   -17.9087     0.0000     2.0000 </r>
       <r>   -17.7666     0.0000     2.0000 </r>
       <r>   -17.6245     0.0000     2.0000 </r>
       <r>   -17.4825     0.0000     2.0000 </r>
       <r>   -17.3404     0.0000     2.0000 </r>
       <r>   -17.1983     0.0000     2.0000 </r>
       <r>   -17.0562     0.0000     2.0000 </r>
       <r>   -16.9141     0.0000     2.0000 </r>
       <r>   -16.7721     0.0000     2.0000 </r>
       <r>   -16.6300     0.0000     2.0000 </r>
       <r>   -16.4879     0.0000     2.0000 </r>
       <r>   -16.3458     0.0000     2.0000 </r>
       <r>   -16.2037     0.0000     2.0000 </r>
       <r>   -16.0616     0.0000     2.0000 </r>
       <r>   -15.9196     0.0000     2.0000 </r>
       <r>   -15.7775     0.0000     2.0000 </r>
       <r>   -15.6354     0.0000     2.0000 </r>
       <r>   -15.4933     0.0000     2.0000 </r>
       <r>   -15.3512     0.0000     2.0000 </r>
       <r>   -15.2091     0.0000     2.0000 </r>
       <r>   -15.0671     0.0000     2.0000 </r>
       <r>   -14.9250     0.0000     2.0000 </r>
       <r>   -14.7829     0.0000     2.0000 </r>
       <r>   -14.6408     0.0000     2.0000 </r>
       <r>   -14.4987     0.0000     2.0000 </r>
       <r>   -14.3567     0.0000     2.0000 </r>
       <r>   -14.2146     0.0000     2.0000 </r>
       <r>   -14.0725     0.0000     2.0000 </r>
       <r>   -13.9304     0.0000     2.0000 </r>
       <r>   -13.7883     0.0000     2.0000 </r>
       <r>   -13.6462     0.0000     2.0000 </r>
       <r>   -13.5042     0.0000     2.0000 </r>
       <r>   -13.3621     0.0000     2.0000 </r>
       <r>   -13.2200     0.0000     2.0000 </r>
       <r>   -13.0779     0.0000     2.0000 </r>
       <r>   -12.9358     0.0000     2.0000 </r>
       <r>   -12.7937     0.0000     2.0000 </r>
       <r>   -12.6517     0.0000     2.0000 </r>
       <r>   -12.5096     0.0000     2.0000 </r>
       <r>   -12.3675     0.0000     2.0000 </r>
       <r>   -12.2254     0.0000     2.0000 </r>
       <r>   -12.0833     0.0000     2.0000 </r>
       <r>   -11.9412     0.0000     2.0000 </r>
       <r>   -11.7992     0.0000     2.0000 </r>
       <r>   -11.6571     0.0000     2.0000 </r>
       <r>   -11.5150     0.0000     2.0000 </r>
       <r>   -11.3729     0.0000     2.0000 </r>
       <r>   -11.2308     0.0000     2.0000 </r>
       <r>   -11.0888     0.0000     2.0000 </r>
       <r>   -10.9467     0.0000     2.0000 </r>
       <r>   -10.8046     0.0000     2.0000 </r>
       <r>   -10.6625     0.0000     2.0000 </r>
       <r>   -10.5204     0.0000     2.0000 </r>
       <r>   -10.3783     0.0000     2.0000 </r>
       <r>   -10.2363     0.0000     2.0000 </r>
       <r>   -10.0942     0.0000     2.0000 </r>
       <r>    -9.9521     0.0000     2.0000 </r>
       <r>    -9.8100     0.0000     2.0000 </r>
       <r>    -9.6679     0.0000     2.0000 </r>
       <r>    -9.5258     0.0000     2.0000 </r>
       <r>    -9.3838     0.0000     2.0000 </r>
       <r>    -9.2417     0.0000     2.0000 </r>
       <r>    -9.0996     0.0000     2.0000 </r>
       <r>    -8.9575     0.0000     2.0000 </r>
       <r>    -8.8154     0.0000     2.0000 </r>
       <r>    -8.6734     0.0000     2.0000 </r>
       <r>    -8.5313     0.0000     2.0000 </r>
       <r>    -8.3892     0.0000     2.0000 </r>
       <r>    -8.2471     0.0000     2.0000 </r>
       <r>    -8.1050     0.0000     2.0000 </r>
       <r>    -7.9629     0.0000     2.0000 </r>
       <r>    -7.8209     0.0000     2.0000 </r>
       <r>    -7.6788     0.0000     2.0000 </r>
       <r>    -7.5367     0.0000     2.0000 </r>
       <r>    -7.3946     0.0000     2.0000 </r>
       <r>    -7.2525     0.0000     2.0000 </r>
       <r>    -7.1104     0.0000     2.0000 </r>
       <r>    -6.9684     2.3896     2.1741 </r>
       <r>    -6.8263     4.9686     2.6969 </r>
       <r>    -6.6842     2.6819     3.5868 </r>
       <r>    -6.5421     1.8858     4.2014 </r>
       <r>    -6.4000     3.1909     4.5620 </r>
       <r>    -6.2580     0.0000     5.0000 </r>
       <r>    -6.1159     7.2599     6.5813 </r>
       <r>    -5.9738     0.0000     7.0000 </r>
       <r>    -5.8317     0.0000     7.0000 </r>
       <r>    -5.6896     0.0000     7.0000 </r>
       <r>    -5.5475     0.0000     7.0000 </r>
       <r>    -5.4055     0.0000     7.0000 </r>
       <r>    -5.2634     0.0000     7.0000 </r>
       <r>    -5.1213     0.0000     7.0000 </r>
       <r>    -4.9792     0.0000     7.0000 </r>
       <r>    -4.8371     0.0000     7.0000 </r>
       <r>    -4.6950     0.8670     7.4606 </r>
       <r>    -4.5530     0.7665     7.5767 </r>
       <r>    -4.4109     0.6661     7.6785 </r>
       <r>    -4.2688     0.5656     7.7660 </r>
       <r>    -4.1267     0.4651     7.8392 </r>
       <r>    -3.9846     0.3647     7.8981 </r>
       <r>    -3.8426     1.3121     8.3565 </r>
       <r>    -3.7005     1.8570     9.0930 </r>
       <r>    -3.5584     1.5821     9.3374 </r>
       <r>    -3.4163     1.3073     9.5426 </r>
       <r>    -3.2742     1.0324     9.7088 </r>
       <r>    -3.1321     0.7576     9.8360 </r>
       <r>    -2.9901     0.4828     9.9241 </r>
       <r>    -2.8480     0.0000    10.0000 </r>
       <r>    -2.7059     2.3375    10.2071 </r>
       <r>    -2.5638     0.0000    11.0000 </r>
       <r>    -2.4217     0.0000    11.0000 </r>
       <r>    -2.2796     0.0000    11.0000 </r>
       <r>    -2.1376     9.0283    11.5052 </r>
       <r>    -1.9955     3.8275    12.5365 </r>
       <r>    -1.8534     0.0000    13.0000 </r>
       <r>    -1.7113     0.0000    13.0000 </r>
       <r>    -1.5692     0.0000    13.0000 </r>
       <r>    -1.4272     0.0000    13.0000 </r>
       <r>    -1.2851     0.0000    13.0000 </r>
       <r>    -1.1430     0.0000    13.0000 </r>
       <r>    -1.0009     0.0000    13.0000 </r>
       <r>    -0.8588     0.0000    13.0000 </r>
       <r>    -0.7167     0.0000    13.0000 </r>
       <r>    -0.5747     0.0000    13.0000 </r>
       <r>    -0.4326     0.0000    13.0000 </r>
       <r>    -0.2905     0.0000    13.0000 </r>
       <r>    -0.1484     0.0000    13.0000 </r>
       <r>    -0.0063     0.0000    13.0000 </r>
       <r>     0.1358     0.0000    13.0000 </r>
       <r>     0.2778     0.0000    13.0000 </r>
       <r>     0.4199     0.0000    13.0000 </r>
       <r>     0.5620     0.0000    13.0000 </r>
       <r>     0.7041     0.0000    13.0000 </r>
       <r>     0.8462     0.0000    13.0000 </r>
       <r>     0.9882     0.0000    13.0000 </r>
       <r>     1.1303     0.0000    13.0000 </r>
       <r>     1.2724     0.0000    13.0000 </r>
       <r>     1.4145     0.0000    13.0000 </r>
       <r>     1.5566     0.0000    13.0000 </r>
       <r>     1.6987     0.0000    13.0000 </r>
       <r>     1.8407     0.0000    13.0000 </r>
       <r>     1.9828     0.0000    13.0000 </r>
       <r>     2.1249     0.0000    13.0000 </r>
       <r>     2.2670     0.0000    13.0000 </r>
       <r>     2.4091     0.0000    13.0000 </r>
       <r>     2.5512     0.0000    13.0000 </r>
       <r>     2.6932     0.0000    13.0000 </r>
       <r>     2.8353     0.0000    13.0000 </r>
       <r>     2.9774     0.0878    13.0348 </r>
       <r>     3.1195     0.1081    13.0487 </r>
       <r>     3.2616     0.1284    13.0655 </r>
       <r>     3.4036     0.1487    13.0852 </r>
       <r>     3.5457     0.1690    13.1078 </r>
       <r>     3.6878     0.1893    13.1332 </r>
       <r>     3.8299     0.2096    13.1615 </r>
       <r>     3.9720     0.2299    13.1928 </r>
       <r>     4.1141     0.2502    13.2269 </r>
       <r>     4.2561     0.2705    13.2639 </r>
       <r>     4.3982     0.2908    13.3037 </r>
       <r>     4.5403     0.3110    13.3465 </r>
       <r>     4.6824     0.3313    13.3921 </r>
       <r>     4.8245     0.3516    13.4406 </r>
       <r>     4.9666     0.3719    13.4920 </r>
       <r>     5.1086     0.3922    13.5463 </r>
       <r>     5.2507     0.0000    14.0000 </r>
       <r>     5.3928     0.0000    14.0000 </r>
       <r>     5.5349     0.0000    14.0000 </r>
       <r>     5.6770     0.0000    14.0000 </r>
       <r>     5.8190     0.0000    14.0000 </r>
       <r>     5.9611     0.0000    14.0000 </r>
       <r>     6.1032     0.0000    14.0000 </r>
       <r>     6.2453     0.0000    14.0000 </r>
[...]
        <r>  0.0003  0.1204  0.0188  0.2408  0.0000  0.0000  0.0000  0.0000  0.0000 </r>
        <r>  0.0003  0.1204  0.0188  0.2408  0.0000  0.0000  0.0000  0.0000  0.0000 </r>
       </set>
       <set comment="band 13">
        <r>  0.0000  0.0001  0.0000  0.0000  0.0133  0.0030  0.0000  0.0015  0.1061 </r>
        <r>  0.0000  0.2440  0.0000  0.1220  0.0000  0.0000  0.0000  0.0000  0.0000 </r>
        <r>  0.0000  0.2440  0.0000  0.1220  0.0000  0.0000  0.0000  0.0000  0.0000 </r>
       </set>
       <set comment="band 14">
        <r>  0.4346  0.0041  0.0002  0.0082  0.0002  0.0004  0.0005  0.0008  0.0000 </r>
        <r>  0.0123  0.0289  0.0389  0.0579  0.0000  0.0000  0.0000  0.0000  0.0000 </r>
        <r>  0.0123  0.0289  0.0389  0.0579  0.0000  0.0000  0.0000  0.0000  0.0000 </r>
       </set>
       <set comment="band 15">
        <r>  0.0453  0.0413  0.0399  0.0826  0.0030  0.0009  0.0057  0.0018  0.0004 </r>
        <r>  0.0178  0.0013  0.0609  0.0025  0.0000  0.0000  0.0000  0.0000  0.0000 </r>
        <r>  0.0178  0.0013  0.0609  0.0025  0.0000  0.0000  0.0000  0.0000  0.0000 </r>
       </set>
       <set comment="band 16">
        <r>  0.0146  0.0511  0.1149  0.1023  0.0017  0.0007  0.0088  0.0013  0.0002 </r>
        <r>  0.0135  0.0150  0.0273  0.0299  0.0000  0.0000  0.0000  0.0000  0.0000 </r>
        <r>  0.0135  0.0150  0.0273  0.0299  0.0000  0.0000  0.0000  0.0000  0.0000 </r>
       </set>
       <set comment="band 17">
        <r>  0.0000  0.2374  0.0000  0.1187  0.0000  0.0013  0.0000  0.0007  0.0000 </r>
        <r>  0.0000  0.0628  0.0000  0.0314  0.0000  0.0000  0.0000  0.0000  0.0000 </r>
        <r>  0.0000  0.0628  0.0000  0.0314  0.0000  0.0000  0.0000  0.0000  0.0000 </r>
       </set>
       <set comment="band 18">
        <r>  0.0026  0.0020  0.1447  0.0040  0.0643  0.0000  0.0042  0.0000  0.0080 </r>
        <r>  0.0111  0.0038  0.0094  0.0077  0.0000  0.0000  0.0000  0.0000  0.0000 </r>
        <r>  0.0111  0.0038  0.0094  0.0077  0.0000  0.0000  0.0000  0.0000  0.0000 </r>
       </set>
      </set>
      <set comment="kpoint 14">
       <set comment="band 1">
        <r>  0.0018  0.0007  0.0027  0.0009  0.0001  0.0003  0.0007  0.0006  0.0004 </r>
        <r>  0.4258  0.0000  0.0000  0.0000  0.0000  0.0000  0.0000  0.0000  0.0000 </r>
        <r>  0.4258  0.0000  0.0000  0.0000  0.0000  0.0000  0.0000  0.0000  0.0000 </r>
       </set>
       <set comment="band 2">
        <r>  0.0002  0.0008  0.0007  0.0002  0.0004  0.0013  0.0001  0.0025  0.0017 </r>
        <r>  0.4315  0.0000  0.0000  0.0000  0.0000  0.0000  0.0000  0.0000  0.0000 </r>
        <r>  0.4316  0.0000  0.0000  0.0000  0.0000  0.0000  0.0000  0.0000  0.0000 </r>
       </set>
       <set comment="band 3">
        <r>  0.0038  0.0018  0.0009  0.0003  0.0603  0.1808  0.0083  0.1439  0.3551 </r>
        <r>  0.0003  0.0284  0.0226  0.0075  0.0000  0.0000  0.0000  0.0000  0.0000 </r>
        <r>  0.0003  0.0284  0.0226  0.0075  0.0000  0.0000  0.0000  0.0000  0.0000 </r>
       </set>
       <set comment="band 4">
        <r>  0.0000  0.0000  0.0003  0.0008  0.4206  0.1402  0.1396  0.0620  0.0465 </r>
        <r>  0.0000  0.0000  0.0125  0.0376  0.0000  0.0000  0.0000  0.0000  0.0000 </r>
        <r>  0.0000  0.0000  0.0125  0.0376  0.0000  0.0000  0.0000  0.0000  0.0000 </r>
       </set>
       <set comment="band 5">
        <r>  0.0044  0.0001  0.0003  0.0001  0.0515  0.1546  0.2682  0.1059  0.2718 </r>
        <r>  0.0009  0.0308  0.0014  0.0005  0.0000  0.0000  0.0000  0.0000  0.0000 </r>
        <r>  0.0009  0.0308  0.0014  0.0005  0.0000  0.0000  0.0000  0.0000  0.0000 </r>
       </set>
       <set comment="band 6">
        <r>  0.0000  0.0000  0.0001  0.0002  0.2181  0.0727  0.3716  0.1652  0.1239 </r>
        <r>  0.0000  0.0000  0.0009  0.0027  0.0000  0.0000  0.0000  0.0000  0.0000 </r>
        <r>  0.0000  0.0000  0.0009  0.0027  0.0000  0.0000  0.0000  0.0000  0.0000 </r>
       </set>
       <set comment="band 7">
        <r>  0.0008  0.0002  0.0000  0.0000  0.0968  0.2904  0.1075  0.4005  0.0265 </r>
        <r>  0.0046  0.0076  0.0042  0.0014  0.0000  0.0000  0.0000  0.0000  0.0000 </r>
        <r>  0.0046  0.0076  0.0042  0.0014  0.0000  0.0000  0.0000  0.0000  0.0000 </r>
       </set>
       <set comment="band 8">
        <r>  0.1040  0.0000  0.0008  0.0003  0.0200  0.0599  0.0097  0.0172  0.0004 </r>
        <r>  0.0021  0.0822  0.1298  0.0433  0.0000  0.0000  0.0000  0.0000  0.0000 </r>
        <r>  0.0021  0.0822  0.1298  0.0433  0.0000  0.0000  0.0000  0.0000  0.0000 </r>
       </set>
       <set comment="band 9">
        <r>  0.0000  0.0000  0.0086  0.0259  0.0393  0.0131  0.0013  0.0006  0.0004 </r>
        <r>  0.0000  0.0000  0.0822  0.2465  0.0000  0.0000  0.0000  0.0000  0.0000 </r>
        <r>  0.0000  0.0000  0.0822  0.2465  0.0000  0.0000  0.0000  0.0000  0.0000 </r>
       </set>
       <set comment="band 10">
        <r>  0.0000  0.0193  0.0095  0.0032  0.0099  0.0297  0.0018  0.0244  0.0649 </r>
        <r>  0.0024  0.0994  0.1451  0.0484  0.0000  0.0000  0.0000  0.0000  0.0000 </r>
        <r>  0.0024  0.0994  0.1451  0.0484  0.0000  0.0000  0.0000  0.0000  0.0000 </r>
       </set>
       <set comment="band 11">
        <r>  0.0017  0.0073  0.0052  0.0017  0.0009  0.0026  0.0144  0.0245  0.0007 </r>
        <r>  0.0024  0.2835  0.0657  0.0219  0.0000  0.0000  0.0000  0.0000  0.0000 </r>
        <r>  0.0024  0.2835  0.0657  0.0219  0.0000  0.0000  0.0000  0.0000  0.0000 </r>
       </set>
       <set comment="band 12">
        <r>  0.0003  0.0008  0.0005  0.0002  0.0000  0.0000  0.0127  0.0032  0.0681 </r>
        <r>  0.0003  0.1994  0.1355  0.0452  0.0000  0.0000  0.0000  0.0000  0.0000 </r>
        <r>  0.0003  0.1994  0.1355  0.0452  0.0000  0.0000  0.0000  0.0000  0.0000 </r>
       </set>
       <set comment="band 13">
        <r>  0.0000  0.0000  0.0000  0.0001  0.0486  0.0162  0.0333  0.0148  0.0111 </r>
        <r>  0.0000  0.0000  0.0915  0.2745  0.0000  0.0000  0.0000  0.0000  0.0000 </r>
        <r>  0.0000  0.0000  0.0915  0.2745  0.0000  0.0000  0.0000  0.0000  0.0000 </r>
       </set>
       <set comment="band 14">
        <r>  0.4346  0.0027  0.0074  0.0025  0.0004  0.0011  0.0002  0.0001  0.0003 </r>
        <r>  0.0123  0.0150  0.0830  0.0277  0.0000  0.0000  0.0000  0.0000  0.0000 </r>
        <r>  0.0123  0.0150  0.0830  0.0277  0.0000  0.0000  0.0000  0.0000  0.0000 </r>
       </set>
       <set comment="band 15">
        <r>  0.0453  0.0016  0.1217  0.0406  0.0013  0.0039  0.0029  0.0019  0.0018 </r>
        <r>  0.0178  0.0297  0.0262  0.0087  0.0000  0.0000  0.0000  0.0000  0.0000 </r>
        <r>  0.0178  0.0297  0.0262  0.0087  0.0000  0.0000  0.0000  0.0000  0.0000 </r>
       </set>
       <set comment="band 16">
        <r>  0.0146  0.2529  0.0116  0.0039  0.0031  0.0094  0.0000  0.0001  0.0000 </r>
        <r>  0.0135  0.0462  0.0195  0.0065  0.0000  0.0000  0.0000  0.0000  0.0000 </r>
        <r>  0.0135  0.0462  0.0195  0.0065  0.0000  0.0000  0.0000  0.0000  0.0000 </r>
       </set>
       <set comment="band 17">
        <r>  0.0000  0.0000  0.0890  0.2671  0.0009  0.0003  0.0005  0.0002  0.0002 </r>
        <r>  0.0000  0.0000  0.0235  0.0706  0.0000  0.0000  0.0000  0.0000  0.0000 </r>
        <r>  0.0000  0.0000  0.0235  0.0706  0.0000  0.0000  0.0000  0.0000  0.0000 </r>
       </set>
       <set comment="band 18">
        <r>  0.0026  0.0707  0.0600  0.0200  0.0082  0.0245  0.0041  0.0311  0.0086 </r>
        <r>  0.0111  0.0065  0.0108  0.0036  0.0000  0.0000  0.0000  0.0000  0.0000 </r>
        <r>  0.0111  0.0065  0.0108  0.0036  0.0000  0.0000  0.0000  0.0000  0.0000 </r>
       </set>
      </set>
      <set comment="kpoint 15">
       <set comment="band 1">
        <r>  0.0018  0.0007  0.0027  0.0009  0.0001  0.0003  0.0007  0.0006  0.0004 </r>
        <r>  0.4258  0.0000  0.0000  0.0000  0.0000  0.0000  0.0000  0.0000  0.0000 </r>
        <r>  0.4258  0.0000  0.0000  0.0000  0.0000  0.0000  0.0000  0.0000  0.0000 </r>
       </set>
       <set comment="band 2">
        <r>  0.0002  0.0008  0.0007  0.0002  0.0004  0.0013  0.0001  0.0025  0.0017 </r>
        <r>  0.4315  0.0000  0.0000  0.0000  0.0000  0.0000  0.0000  0.0000  0.0000 </r>
        <r>  0.4316  0.0000  0.0000  0.0000  0.0000  0.0000  0.0000  0.0000  0.0000 </r>
       </set>
       <set comment="band 3">
        <r>  0.0038  0.0018  0.0009  0.0003  0.0603  0.1808  0.0083  0.1439  0.3551 </r>
        <r>  0.0003  0.0284  0.0226  0.0075  0.0000  0.0000  0.0000  0.0000  0.0000 </r>
        <r>  0.0003  0.0284  0.0226  0.0075  0.0000  0.0000  0.0000  0.0000  0.0000 </r>
       </set>
       <set comment="band 4">
        <r>  0.0000  0.0000  0.0003  0.0008  0.4206  0.1402  0.1396  0.0620  0.0465 </r>
        <r>  0.0000  0.0000  0.0125  0.0376  0.0000  0.0000  0.0000  0.0000  0.0000 </r>
        <r>  0.0000  0.0000  0.0125  0.0376  0.0000  0.0000  0.0000  0.0000  0.0000 </r>
       </set>
       <set comment="band 5">
        <r>  0.0044  0.0001  0.0003  0.0001  0.0515  0.1546  0.2682  0.1059  0.2718 </r>
        <r>  0.0009  0.0308  0.0014  0.0005  0.0000  0.0000  0.0000  0.0000  0.0000 </r>
        <r>  0.0009  0.0308  0.0014  0.0005  0.0000  0.0000  0.0000  0.0000  0.0000 </r>
       </set>
       <set comment="band 6">
        <r>  0.0000  0.0000  0.0001  0.0002  0.2181  0.0727  0.3716  0.1652  0.1239 </r>
        <r>  0.0000  0.0000  0.0009  0.0027  0.0000  0.0000  0.0000  0.0000  0.0000 </r>
        <r>  0.0000  0.0000  0.0009  0.0027  0.0000  0.0000  0.0000  0.0000  0.0000 </r>
       </set>
       <set comment="band 7">
        <r>  0.0008  0.0002  0.0000  0.0000  0.0968  0.2904  0.1075  0.4005  0.0265 </r>
        <r>  0.0046  0.0076  0.0042  0.0014  0.0000  0.0000  0.0000  0.0000  0.0000 </r>
        <r>  0.0046  0.0076  0.0042  0.0014  0.0000  0.0000  0.0000  0.0000  0.0000 </r>
       </set>
       <set comment="band 8">
        <r>  0.1040  0.0000  0.0008  0.0003  0.0200  0.0599  0.0097  0.0172  0.0004 </r>
        <r>  0.0021  0.0822  0.1298  0.0433  0.0000  0.0000  0.0000  0.0000  0.0000 </r>
        <r>  0.0021  0.0822  0.1298  0.0433  0.0000  0.0000  0.0000  0.0000  0.0000 </r>
       </set>
       <set comment="band 9">
        <r>  0.0000  0.0000  0.0086  0.0259  0.0393  0.0131  0.0013  0.0006  0.0004 </r>
        <r>  0.0000  0.0000  0.0822  0.2465  0.0000  0.0000  0.0000  0.0000  0.0000 </r>
        <r>  0.0000  0.0000  0.0822  0.2465  0.0000  0.0000  0.0000  0.0000  0.0000 </r>
       </set>
       <set comment="band 10">
        <r>  0.0000  0.0193  0.0095  0.0032  0.0099  0.0297  0.0018  0.0244  0.0649 </r>
        <r>  0.0024  0.0994  0.1451  0.0484  0.0000  0.0000  0.0000  0.0000  0.0000 </r>
        <r>  0.0024  0.0994  0.1451  0.0484  0.0000  0.0000  0.0000  0.0000  0.0000 </r>
       </set>
       <set comment="band 11">
        <r>  0.0017  0.0073  0.0052  0.0017  0.0009  0.0026  0.0144  0.0245  0.0007 </r>
        <r>  0.0024  0.2835  0.0657  0.0219  0.0000  0.0000  0.0000  0.0000  0.0000 </r>
        <r>  0.0024  0.2835  0.0657  0.0219  0.0000  0.0000  0.0000  0.0000  0.0000 </r>
       </set>
       <set comment="band 12">
        <r>  0.0003  0.0008  0.0005  0.0002  0.0000  0.0000  0.0127  0.0032  0.0681 </r>
        <r>  0.0003  0.1994  0.1355  0.0452  0.0000  0.0000  0.0000  0.0000  0.0000 </r>
        <r>  0.0003  0.1994  0.1355  0.0452  0.0000  0.0000  0.0000  0.0000  0.0000 </r>
       </set>
       <set comment="band 13">
        <r>  0.0000  0.0000  0.0000  0.0001  0.0486  0.0162  0.0333  0.0148  0.0111 </r>
        <r>  0.0000  0.0000  0.0915  0.2745  0.0000  0.0000  0.0000  0.0000  0.0000 </r>
        <r>  0.0000  0.0000  0.0915  0.2745  0.0000  0.0000  0.0000  0.0000  0.0000 </r>
       </set>
       <set comment="band 14">
        <r>  0.4346  0.0027  0.0074  0.0025  0.0004  0.0011  0.0002  0.0001  0.0003 </r>
        <r>  0.0123  0.0150  0.0830  0.0277  0.0000  0.0000  0.0000  0.0000  0.0000 </r>
        <r>  0.0123  0.0150  0.0830  0.0277  0.0000  0.0000  0.0000  0.0000  0.0000 </r>
       </set>
       <set comment="band 15">
        <r>  0.0453  0.0016  0.1217  0.0406  0.0013  0.0039  0.0029  0.0019  0.0018 </r>
        <r>  0.0178  0.0297  0.0262  0.0087  0.0000  0.0000  0.0000  0.0000  0.0000 </r>
        <r>  0.0178  0.0297  0.0262  0.0087  0.0000  0.0000  0.0000  0.0000  0.0000 </r>
       </set>
       <set comment="band 16">
        <r>  0.0146  0.2529  0.0116  0.0039  0.0031  0.0094  0.0000  0.0001  0.0000 </r>
        <r>  0.0135  0.0462  0.0195  0.0065  0.0000  0.0000  0.0000  0.0000  0.0000 </r>
        <r>  0.0135  0.0462  0.0195  0.0065  0.0000  0.0000  0.0000  0.0000  0.0000 </r>
       </set>
       <set comment="band 17">
        <r>  0.0000  0.0000  0.0890  0.2671  0.0009  0.0003  0.0005  0.0002  0.0002 </r>
        <r>  0.0000  0.0000  0.0235  0.0706  0.0000  0.0000  0.0000  0.0000  0.0000 </r>
        <r>  0.0000  0.0000  0.0235  0.0706  0.0000  0.0000  0.0000  0.0000  0.0000 </r>
       </set>
       <set comment="band 18">
        <r>  0.0026  0.0707  0.0600  0.0200  0.0082  0.0245  0.0041  0.0311  0.0086 </r>
        <r>  0.0111  0.0065  0.0108  0.0036  0.0000  0.0000  0.0000  0.0000  0.0000 </r>
        <r>  0.0111  0.0065  0.0108  0.0036  0.0000  0.0000  0.0000  0.0000  0.0000 </r>
       </set>
      </set>
      <set comment="kpoint 16">
       <set comment="band 1">
        <r>  0.0018  0.0007  0.0000  0.0036  0.0004  0.0000  0.0001  0.0000  0.0016 </r>
        <r>  0.4258  0.0000  0.0000  0.0001  0.0000  0.0000  0.0000  0.0000  0.0000 </r>
        <r>  0.4258  0.0000  0.0000  0.0001  0.0000  0.0000  0.0000  0.0000  0.0000 </r>
       </set>
       <set comment="band 2">
        <r>  0.0002  0.0008  0.0000  0.0009  0.0017  0.0000  0.0043  0.0000  0.0000 </r>
        <r>  0.4315  0.0000  0.0000  0.0001  0.0000  0.0000  0.0000  0.0000  0.0000 </r>
        <r>  0.4316  0.0000  0.0000  0.0001  0.0000  0.0000  0.0000  0.0000  0.0000 </r>
       </set>
       <set comment="band 3">
        <r>  0.0038  0.0018  0.0000  0.0012  0.2411  0.0000  0.4358  0.0000  0.0715 </r>
        <r>  0.0003  0.0284  0.0000  0.0301  0.0000  0.0000  0.0000  0.0000  0.0000 </r>
        <r>  0.0003  0.0284  0.0000  0.0301  0.0000  0.0000  0.0000  0.0000  0.0000 </r>
       </set>
       <set comment="band 4">
        <r>  0.0000  0.0000  0.0010  0.0000  0.0000  0.5608  0.0000  0.2482  0.0000 </r>
        <r>  0.0000  0.0000  0.0501  0.0000  0.0000  0.0000  0.0000  0.0000  0.0000 </r>
        <r>  0.0000  0.0000  0.0501  0.0000  0.0000  0.0000  0.0000  0.0000  0.0000 </r>
       </set>
       <set comment="band 5">
        <r>  0.0044  0.0001  0.0000  0.0004  0.2061  0.0000  0.0009  0.0000  0.6449 </r>
        <r>  0.0009  0.0308  0.0000  0.0019  0.0000  0.0000  0.0000  0.0000  0.0000 </r>
        <r>  0.0009  0.0308  0.0000  0.0019  0.0000  0.0000  0.0000  0.0000  0.0000 </r>
       </set>
       <set comment="band 6">
        <r>  0.0000  0.0000  0.0002  0.0000  0.0000  0.2908  0.0000  0.6607  0.0000 </r>
        <r>  0.0000  0.0000  0.0036  0.0000  0.0000  0.0000  0.0000  0.0000  0.0000 </r>
        <r>  0.0000  0.0000  0.0036  0.0000  0.0000  0.0000  0.0000  0.0000  0.0000 </r>
       </set>
       <set comment="band 7">
        <r>  0.0008  0.0002  0.0000  0.0001  0.3872  0.0000  0.3861  0.0000  0.1485 </r>
        <r>  0.0046  0.0076  0.0000  0.0055  0.0000  0.0000  0.0000  0.0000  0.0000 </r>
        <r>  0.0046  0.0076  0.0000  0.0055  0.0000  0.0000  0.0000  0.0000  0.0000 </r>
       </set>
       <set comment="band 8">
        <r>  0.1040  0.0000  0.0000  0.0011  0.0799  0.0000  0.0096  0.0000  0.0176 </r>
        <r>  0.0021  0.0822  0.0000  0.1731  0.0000  0.0000  0.0000  0.0000  0.0000 </r>
        <r>  0.0021  0.0822  0.0000  0.1731  0.0000  0.0000  0.0000  0.0000  0.0000 </r>
       </set>
       <set comment="band 9">
        <r>  0.0000  0.0000  0.0345  0.0000  0.0000  0.0525  0.0000  0.0022  0.0000 </r>
        <r>  0.0000  0.0000  0.3287  0.0000  0.0000  0.0000  0.0000  0.0000  0.0000 </r>
        <r>  0.0000  0.0000  0.3287  0.0000  0.0000  0.0000  0.0000  0.0000  0.0000 </r>
       </set>
       <set comment="band 10">
        <r>  0.0000  0.0193  0.0000  0.0127  0.0396  0.0000  0.0770  0.0000  0.0143 </r>
        <r>  0.0024  0.0994  0.0000  0.1935  0.0000  0.0000  0.0000  0.0000  0.0000 </r>
        <r>  0.0024  0.0994  0.0000  0.1935  0.0000  0.0000  0.0000  0.0000  0.0000 </r>
       </set>
       <set comment="band 11">
        <r>  0.0017  0.0073  0.0000  0.0070  0.0035  0.0000  0.0132  0.0000  0.0265 </r>
        <r>  0.0024  0.2835  0.0000  0.0876  0.0000  0.0000  0.0000  0.0000  0.0000 </r>
        <r>  0.0024  0.2835  0.0000  0.0876  0.0000  0.0000  0.0000  0.0000  0.0000 </r>
       </set>
       <set comment="band 12">
        <r>  0.0003  0.0008  0.0000  0.0007  0.0000  0.0000  0.0392  0.0000  0.0448 </r>
        <r>  0.0003  0.1994  0.0000  0.1807  0.0000  0.0000  0.0000  0.0000  0.0000 </r>
        <r>  0.0003  0.1994  0.0000  0.1807  0.0000  0.0000  0.0000  0.0000  0.0000 </r>
       </set>
       <set comment="band 13">
        <r>  0.0000  0.0000  0.0001  0.0000  0.0000  0.0648  0.0000  0.0591  0.0000 </r>
        <r>  0.0000  0.0000  0.3660  0.0000  0.0000  0.0000  0.0000  0.0000  0.0000 </r>
        <r>  0.0000  0.0000  0.3660  0.0000  0.0000  0.0000  0.0000  0.0000  0.0000 </r>
       </set>
       <set comment="band 14">
        <r>  0.4346  0.0027  0.0000  0.0099  0.0014  0.0000  0.0000  0.0000  0.0005 </r>
        <r>  0.0123  0.0150  0.0000  0.1107  0.0000  0.0000  0.0000  0.0000  0.0000 </r>
        <r>  0.0123  0.0150  0.0000  0.1107  0.0000  0.0000  0.0000  0.0000  0.0000 </r>
       </set>
       <set comment="band 15">
        <r>  0.0453  0.0016  0.0000  0.1622  0.0052  0.0000  0.0002  0.0000  0.0064 </r>
        <r>  0.0178  0.0297  0.0000  0.0350  0.0000  0.0000  0.0000  0.0000  0.0000 </r>
        <r>  0.0178  0.0297  0.0000  0.0350  0.0000  0.0000  0.0000  0.0000  0.0000 </r>
       </set>
       <set comment="band 16">
        <r>  0.0146  0.2529  0.0000  0.0154  0.0125  0.0000  0.0001  0.0000  0.0001 </r>
        <r>  0.0135  0.0462  0.0000  0.0260  0.0000  0.0000  0.0000  0.0000  0.0000 </r>
        <r>  0.0135  0.0462  0.0000  0.0260  0.0000  0.0000  0.0000  0.0000  0.0000 </r>
       </set>
       <set comment="band 17">
        <r>  0.0000  0.0000  0.3561  0.0000  0.0000  0.0011  0.0000  0.0009  0.0000 </r>
        <r>  0.0000  0.0000  0.0941  0.0000  0.0000  0.0000  0.0000  0.0000  0.0000 </r>
        <r>  0.0000  0.0000  0.0941  0.0000  0.0000  0.0000  0.0000  0.0000  0.0000 </r>
       </set>
       <set comment="band 18">
        <r>  0.0026  0.0707  0.0000  0.0800  0.0327  0.0000  0.0402  0.0000  0.0036 </r>
        <r>  0.0111  0.0065  0.0000  0.0144  0.0000  0.0000  0.0000  0.0000  0.0000 </r>
        <r>  0.0111  0.0065  0.0000  0.0144  0.0000  0.0000  0.0000  0.0000  0.0000 </r>
       </set>
      </set>
     </set>
    </set>
   </array>
  </projected>
 </calculation>
 <structure name="finalpos" >
  <crystal>
   <varray name="basis" >
    <v>       3.36349200       0.00000000       1.94191300 </v>
    <v>       1.12116400       3.17113100       1.94191300 </v>
    <v>       0.00000000       0.00000000       3.88382600 </v>
   </varray>
   <i name="volume">     41.42517455 </i>
   <varray name="rec_basis" >
    <v>       0.29731006      -0.10511497       0.00000000 </v>
    <v>       0.00000000       0.31534490       0.00000000 </v>
    <v>      -0.14865503      -0.10511497       0.25747806 </v>
   </varray>
  </crystal>
  <varray name="positions" >
   <v>       0.00000000       0.00000000       0.00000000 </v>
   <v>       0.75000000       0.75000000       0.75000000 </v>
   <v>       0.25000000       0.25000000       0.25000000 </v>
  </varray>
 </structure>
</modeling>
