unknown system                          
           1
     3.363492    0.000000    1.941913
     1.121164    3.171131    1.941913
     0.000000    0.000000    3.883826
   Cd   F 
   1   2
Direct configuration=     1
   0.00000000  0.00000000  0.00000000
   0.75000000  0.75000000  0.75000000
   0.25000000  0.25000000  0.25000000
