 vasp.5.4.1 24Jun15 (build Jul 13 2016 16:36:47) complex                        
  
 executed on           IFC91_ompi date 2020.03.31  16:02:52
 running on    3 total cores
 distrk:  each k-point on    3 cores,    1 groups
 distr:  one band on NCORES_PER_BAND=   1 cores,    3 groups


--------------------------------------------------------------------------------------------------------


 INCAR:
 POTCAR:    PAW_PBE Cd 06Sep2000                  
 POTCAR:    PAW_PBE F 08Apr2002                   
 POTCAR:    PAW_PBE Cd 06Sep2000                  
   VRHFIN =Cd : s2 d10                                                          
   LEXCH  = PE                                                                  
   EATOM  =  1293.1815 eV,   95.0462 Ry                                         
                                                                                
   TITEL  = PAW_PBE Cd 06Sep2000                                                
   LULTRA =        F    use ultrasoft PP ?                                      
   IUNSCR =        1    unscreen: 0-lin 1-nonlin 2-no                           
   RPACOR =    2.000    partial core radius                                     
   POMASS =  112.411; ZVAL   =   12.000    mass and valenz                      
   RCORE  =    2.300    outmost cutoff radius                                   
   RWIGS  =    2.980; RWIGS  =    1.577    wigner-seitz radius (au A)           
   ENMAX  =  274.336; ENMIN  =  205.752 eV                                      
   RCLOC  =    2.054    cutoff for local pot                                    
   LCOR   =        T    correct aug charges                                     
   LPAW   =        T    paw PP                                                  
   EAUG   =  456.106                                                            
   DEXC   =    0.000                                                            
   RMAX   =    2.358    core radius for proj-oper                               
   RAUG   =    1.300    factor for augmentation sphere                          
   RDEP   =    2.450    radius for radial grids                                 
   RDEPT  =    1.955    core radius for aug-charge                              
                                                                                
   Atomic configuration                                                         
   12 entries                                                                   
     n  l   j            E        occ.                                          
     1  0  0.50    -26519.7817   2.0000                                         
     2  0  0.50     -3936.9612   2.0000                                         
     2  1  1.50     -3532.2230   6.0000                                         
     3  0  0.50      -733.7908   2.0000                                         
     3  1  1.50      -601.0792   6.0000                                         
     3  2  2.50      -393.5307  10.0000                                         
     4  0  0.50      -105.8977   2.0000                                         
     4  1  1.50       -66.9488   6.0000                                         
     4  2  2.50       -11.7331  10.0000                                         
     5  0  0.50        -5.6592   2.0000                                         
     5  1  0.50        -1.3606   0.0000                                         
     4  3  2.50        -1.3606   0.0000                                         
   Description                                                                  
     l       E           TYP  RCUT    TYP  RCUT                                 
     2    -11.7331479     23  2.300                                             
     2    -13.0937305     23  2.300                                             
     0     -5.6591502     23  2.300                                             
     0     -1.5561433     23  2.300                                             
     1     -2.7211652     23  2.300                                             
     1      8.3548275     23  2.300                                             
  local pseudopotential read in
  partial core-charges read in
  partial kinetic energy density read in
  atomic valenz-charges read in
  non local Contribution for L=           2  read in
    real space projection operators read in
  non local Contribution for L=           2  read in
    real space projection operators read in
  non local Contribution for L=           0  read in
    real space projection operators read in
  non local Contribution for L=           0  read in
    real space projection operators read in
  non local Contribution for L=           1  read in
    real space projection operators read in
  non local Contribution for L=           1  read in
    real space projection operators read in
    PAW grid and wavefunctions read in
 
   number of l-projection  operators is LMAX  =           6
   number of lm-projection operators is LMMAX =          18
 
 POTCAR:    PAW_PBE F 08Apr2002                   
   VRHFIN =F: s2p5                                                              
   LEXCH  = PE                                                                  
   EATOM  =   659.6475 eV,   48.4827 Ry                                         
                                                                                
   TITEL  = PAW_PBE F 08Apr2002                                                 
   LULTRA =        F    use ultrasoft PP ?                                      
   IUNSCR =        1    unscreen: 0-lin 1-nonlin 2-no                           
   RPACOR =    1.200    partial core radius                                     
   POMASS =   18.998; ZVAL   =    7.000    mass and valenz                      
   RCORE  =    1.520    outmost cutoff radius                                   
   RWIGS  =    1.500; RWIGS  =    0.794    wigner-seitz radius (au A)           
   ENMAX  =  400.000; ENMIN  =  300.000 eV                                      
   ICORE  =        2    local potential                                         
   LCOR   =        T    correct aug charges                                     
   LPAW   =        T    paw PP                                                  
   EAUG   =  613.614                                                            
   RMAX   =    1.555    core radius for proj-oper                               
   RAUG   =    1.300    factor for augmentation sphere                          
   RDEP   =    1.539    radius for radial grids                                 
   RDEPT  =    1.299    core radius for aug-charge                              
                                                                                
   Atomic configuration                                                         
    4 entries                                                                   
     n  l   j            E        occ.                                          
     1  0  0.50      -663.3661   2.0000                                         
     2  0  0.50       -29.8995   2.0000                                         
     2  1  0.50       -11.1114   5.0000                                         
     3  2  1.50       -10.8847   0.0000                                         
   Description                                                                  
     l       E           TYP  RCUT    TYP  RCUT                                 
     0    -29.8995018     23  1.200                                             
     0     -9.5240782     23  1.200                                             
     1    -11.1113914     23  1.520                                             
     1      1.3605826     23  1.520                                             
     2    -10.8846608      7  1.500                                             
  local pseudopotential read in
  partial core-charges read in
  partial kinetic energy density read in
  atomic valenz-charges read in
  non local Contribution for L=           0  read in
    real space projection operators read in
  non local Contribution for L=           0  read in
    real space projection operators read in
  non local Contribution for L=           1  read in
    real space projection operators read in
  non local Contribution for L=           1  read in
    real space projection operators read in
    PAW grid and wavefunctions read in
 
   number of l-projection  operators is LMAX  =           4
   number of lm-projection operators is LMMAX =           8
 

 ----------------------------------------------------------------------------- 
|                                                                             |
|  ADVICE TO THIS USER RUNNING 'VASP/VAMP'   (HEAR YOUR MASTER'S VOICE ...):  |
|                                                                             |
|      You have a (more or less) 'small supercell' and for smaller cells      |
|      it is recommended  to use the reciprocal-space projection scheme!      |
|      The real space optimization is not  efficient for small cells and it   |
|      is also less accurate ...                                              |
|      Therefore set LREAL=.FALSE. in the  INCAR file                         |
|                                                                             |
 ----------------------------------------------------------------------------- 

 Optimization of the real space projectors (new method)

 maximal supplied QI-value         = 16.25
 optimisation between [QCUT,QGAM] = [ 11.54, 23.24] = [ 37.28,151.24] Ry 
 Optimized for a Real-space Cutoff    1.49 Angstroem

   l    n(q)    QCUT    max X(q) W(low)/X(q) W(high)/X(q)  e(spline) 
   2      9    11.539    73.106    0.18E-03    0.88E-04    0.18E-06
   2      9    11.539    71.731    0.19E-03    0.89E-04    0.19E-06
   0     10    11.539   146.509    0.42E-04    0.28E-04    0.31E-06
   0     10    11.539    95.017    0.39E-04    0.27E-04    0.30E-06
   1     10    11.539    36.165    0.52E-04    0.99E-04    0.10E-06
   1     10    11.539    31.530    0.47E-04    0.91E-04    0.92E-07
 Optimization of the real space projectors (new method)

 maximal supplied QI-value         = 24.76
 optimisation between [QCUT,QGAM] = [ 11.64, 23.27] = [ 37.91,151.63] Ry 
 Optimized for a Real-space Cutoff    1.04 Angstroem

   l    n(q)    QCUT    max X(q) W(low)/X(q) W(high)/X(q)  e(spline) 
   0      7    11.635    14.049    0.77E-04    0.36E-03    0.13E-06
   0      7    11.635     8.945    0.12E-03    0.48E-03    0.17E-06
   1      7    11.635     7.086    0.24E-03    0.44E-03    0.21E-06
   1      7    11.635     6.747    0.23E-03    0.35E-03    0.19E-06
  PAW_PBE Cd 06Sep2000                  :
 energy of atom  1       EATOM=-1293.1815
 kinetic energy error for atom=    0.0062 (will be added to EATOM!!)
  PAW_PBE F 08Apr2002                   :
 energy of atom  2       EATOM= -659.6475
 kinetic energy error for atom=    0.0323 (will be added to EATOM!!)
 
 
 POSCAR: Cd1 F2                                  
  positions in direct lattice
  No initial velocities read in
 exchange correlation table for  LEXCH =        8
   RHO(1)=    0.500       N(1)  =     2000
   RHO(2)=  100.500       N(2)  =     4000
 


--------------------------------------------------------------------------------------------------------


 ion  position               nearest neighbor table
   1  0.000  0.000  0.000-   2 2.38   3 2.38   2 2.38   3 2.38   2 2.38   3 2.38   3 2.38   2 2.38

   2  0.750  0.750  0.750-   1 2.38   1 2.38   1 2.38   1 2.38
   3  0.250  0.250  0.250-   1 2.38   1 2.38   1 2.38   1 2.38
 

IMPORTANT INFORMATION: All symmetrisations will be switched off!
NOSYMM: (Re-)initialisation of all symmetry stuff for point group C_1.

 
 
 KPOINTS: manual                                  

Automatic generation of k-mesh.
Space group operators:
 irot       det(A)        alpha          n_x          n_y          n_z        tau_x        tau_y        tau_z
    1     1.000000     0.000000     1.000000     0.000000     0.000000     0.000000     0.000000     0.000000
 
 Subroutine IBZKPT returns following result:
 ===========================================
 
 Found     16 irreducible k-points:
 
 Following reciprocal coordinates:
            Coordinates               Weight
  0.250000  0.250000  0.250000     24.000000
  0.250000  0.000000  0.000000     24.000000
  0.000000 -0.000000 -0.250000     24.000000
  0.000000  0.250000  0.000000     24.000000
 -0.250000  0.250000  0.250000     24.000000
  0.250000 -0.250000  0.250000     24.000000
  0.250000  0.250000 -0.250000     24.000000
  0.250000  0.000000  0.500000     24.000000
 -0.250000  0.500000  0.500000     24.000000
  0.250000  0.500000  0.000000     24.000000
  0.000000  0.500000 -0.250000     24.000000
  0.500000 -0.000000 -0.250000     24.000000
  0.500000  0.500000  0.250000     24.000000
  0.500000 -0.250000  0.500000     24.000000
  0.000000  0.250000  0.500000     24.000000
  0.500000  0.250000  0.000000     24.000000
 
 Following cartesian coordinates:
            Coordinates               Weight
  0.037164  0.026279  0.064370     24.000000
  0.074328 -0.026279  0.000000     24.000000
  0.037164  0.026279 -0.064370     24.000000
  0.000000  0.078836  0.000000     24.000000
 -0.111491  0.078836  0.064370     24.000000
  0.037164 -0.131394  0.064370     24.000000
  0.111491  0.078836 -0.064370     24.000000
  0.000000 -0.078836  0.128739     24.000000
 -0.148655  0.131394  0.128739     24.000000
  0.074328  0.131394  0.000000     24.000000
  0.037164  0.183951 -0.064370     24.000000
  0.185819 -0.026279 -0.064370     24.000000
  0.111491  0.078836  0.064370     24.000000
  0.074328 -0.183951  0.128739     24.000000
 -0.074328  0.026279  0.128739     24.000000
  0.148655  0.026279  0.000000     24.000000
 
 TETIRR: Found     96 inequivalent tetrahedra from      384

 ----------------------------------------------------------------------------- 
|                                                                             |
|           W    W    AA    RRRRR   N    N  II  N    N   GGGG   !!!           |
|           W    W   A  A   R    R  NN   N  II  NN   N  G    G  !!!           |
|           W    W  A    A  R    R  N N  N  II  N N  N  G       !!!           |
|           W WW W  AAAAAA  RRRRR   N  N N  II  N  N N  G  GGG   !            |
|           WW  WW  A    A  R   R   N   NN  II  N   NN  G    G                |
|           W    W  A    A  R    R  N    N  II  N    N   GGGG   !!!           |
|                                                                             |
|      The number of bands has been changed from the values supplied          |
|      in the INCAR file. This is a result of running the parallel version.   |
|      The orbitals not found in the WAVECAR file will be initialized with    |
|      random numbers, which is usually adequate. For correlated              |
|      calculations, however, you should redo the groundstate calculation.    |
|      I found NBANDS    =       17  now  NBANDS  =      18                   |
|                                                                             |
 ----------------------------------------------------------------------------- 



--------------------------------------------------------------------------------------------------------




 Dimension of arrays:
   k-points           NKPTS =     16   k-points in BZ     NKDIM =     16   number of bands    NBANDS=     18
   number of dos      NEDOS =    301   number of ions     NIONS =      3
   non local maximal  LDIM  =      6   non local SUM 2l+1 LMDIM =     18
   total plane-waves  NPLWV =  27000
   max r-space proj   IRMAX =   9065   max aug-charges    IRDMAX=  27759
   dimension x,y,z NGX =    30 NGY =   30 NGZ =   30
   dimension x,y,z NGXF=    60 NGYF=   60 NGZF=   60
   support grid    NGXF=    60 NGYF=   60 NGZF=   60
   ions per type =               1   2
 NGX,Y,Z   is equivalent  to a cutoff of  12.84, 12.84, 12.84 a.u.
 NGXF,Y,Z  is equivalent  to a cutoff of  25.68, 25.68, 25.68 a.u.


 I would recommend the setting:
   dimension x,y,z NGX =    29 NGY =   29 NGZ =   29
 SYSTEM =  unknown system                          
 POSCAR =  Cd1 F2                                  

 Startparameter for this run:
   NWRITE =      2    write-flag & timer
   PREC   = accura    normal or accurate (medium, high low for compatibility)
   ISTART =      0    job   : 0-new  1-cont  2-samecut
   ICHARG =      0    charge: 1-file 2-atom 10-const
   ISPIN  =      2    spin polarized calculation?
   LNONCOLLINEAR =      F non collinear calculations
   LSORBIT =      F    spin-orbit coupling
   INIWAV =      1    electr: 0-lowe 1-rand  2-diag
   LASPH  =      F    aspherical Exc in radial PAW
   METAGGA=      F    non-selfconsistent MetaGGA calc.

 Electronic Relaxation 1
   ENCUT  =  520.0 eV  38.22 Ry    6.18 a.u.   7.22  7.22  7.22*2*pi/ulx,y,z
   ENINI  =  520.0     initial cutoff
   ENAUG  =  613.6 eV  augmentation charge cutoff
   NELM   =    100;   NELMIN=  2; NELMDL= -5     # of ELM steps 
   EDIFF  = 0.1E-06   stopping-criterion for ELM
   LREAL  =      T    real-space projection
   NLSPLINE    = F    spline interpolate recip. space projectors
   LCOMPAT=      F    compatible to vasp.4.4
   GGA_COMPAT  = T    GGA compatible to vasp.4.4-vasp.4.6
   LMAXPAW     = -100 max onsite density
   LMAXMIX     =    2 max onsite mixed and CHGCAR
   VOSKOWN=      0    Vosko Wilk Nusair interpolation
   ROPT   =   -0.00025  -0.00025
 Ionic relaxation
   EDIFFG = 0.1E-05   stopping-criterion for IOM
   NSW    =      0    number of steps for IOM
   NBLOCK =      1;   KBLOCK =      1    inner block; outer block 
   IBRION =     -1    ionic relax: 0-MD 1-quasi-New 2-CG
   NFREE  =      0    steps in history (QN), initial steepest desc. (CG)
   ISIF   =      3    stress and relaxation
   IWAVPR =     10    prediction:  0-non 1-charg 2-wave 3-comb
   ISYM   =      0    0-nonsym 1-usesym 2-fastsym
   LCORR  =      T    Harris-Foulkes like correction to forces

   POTIM  = 0.5000    time-step for ionic-motion
   TEIN   =    0.0    initial temperature
   TEBEG  =    0.0;   TEEND  =   0.0 temperature during run
   SMASS  =  -3.00    Nose mass-parameter (am)
   estimated Nose-frequenzy (Omega)   =  0.10E-29 period in steps =****** mass=  -0.345E-27a.u.
   SCALEE = 1.0000    scale energy and forces
   NPACO  =    256;   APACO  = 16.0  distance and # of slots for P.C.
   PSTRESS=    0.0 pullay stress

  Mass of Ions in am
   POMASS = 112.41 19.00
  Ionic Valenz
   ZVAL   =  12.00  7.00
  Atomic Wigner-Seitz radii
   RWIGS  =  -1.00 -1.00
  virtual crystal weights 
   VCA    =   1.00  1.00
   NELECT =      26.0000    total number of electrons
   NUPDOWN=      -1.0000    fix difference up-down

 DOS related values:
   EMIN   =  10.00;   EMAX   =-10.00  energy-range for DOS
   EFERMI =   0.00
   ISMEAR =    -5;   SIGMA  =   0.05  broadening in eV -4-tet -1-fermi 0-gaus

 Electronic relaxation 2 (details)
   IALGO  =     38    algorithm
   LDIAG  =      T    sub-space diagonalisation (order eigenvalues)
   LSUBROT=      F    optimize rotation matrix (better conditioning)
   TURBO    =      0    0=normal 1=particle mesh
   IRESTART =      0    0=no restart 2=restart with 2 vectors
   NREBOOT  =      0    no. of reboots
   NMIN     =      0    reboot dimension
   EREF     =   0.00    reference energy to select bands
   IMIX   =      4    mixing-type and parameters
     AMIX     =   0.40;   BMIX     =  1.00
     AMIX_MAG =   1.60;   BMIX_MAG =  1.00
     AMIN     =   0.10
     WC   =   100.;   INIMIX=   1;  MIXPRE=   1;  MAXMIX= -45

 Intra band minimization:
   WEIMIN = 0.0000     energy-eigenvalue tresh-hold
   EBREAK =  0.14E-08  absolut break condition
   DEPER  =   0.30     relativ break condition  

   TIME   =   0.40     timestep for ELM

  volume/ion in A,a.u.               =      13.81        93.18
  Fermi-wavevector in a.u.,A,eV,Ry     =   1.401666  2.648764 26.730920  1.964667
  Thomas-Fermi vector in A             =   2.524504
 
 Write flags
   LWAVE  =      T    write WAVECAR
   LCHARG =      T    write CHGCAR
   LVTOT  =      F    write LOCPOT, total local potential
   LVHAR  =      F    write LOCPOT, Hartree potential only
   LELF   =      F    write electronic localiz. function (ELF)
   LORBIT =     11    0 simple, 1 ext, 2 COOP (PROOUT)


 Dipole corrections
   LMONO  =      F    monopole corrections only (constant potential shift)
   LDIPOL =      F    correct potential (dipole corrections)
   IDIPOL =      0    1-x, 2-y, 3-z, 4-all directions 
   EPSILON=  1.0000000 bulk dielectric constant

 Exchange correlation treatment:
   GGA     =    --    GGA type
   LEXCH   =     8    internal setting for exchange type
   VOSKOWN=      0    Vosko Wilk Nusair interpolation
   LHFCALC =     F    Hartree Fock is set to
   LHFONE  =     F    Hartree Fock one center treatment
   AEXX    =    0.0000 exact exchange contribution

 Linear response parameters
   LEPSILON=     F    determine dielectric tensor
   LRPA    =     F    only Hartree local field effects (RPA)
   LNABLA  =     F    use nabla operator in PAW spheres
   LVEL    =     F    velocity operator in full k-point grid
   LINTERFAST=   F  fast interpolation
   KINTER  =     0    interpolate to denser k-point grid
   CSHIFT  =0.1000    complex shift for real part using Kramers Kronig
   OMEGAMAX=  -1.0    maximum frequency
   DEG_THRESHOLD= 0.2000000E-02 threshold for treating states as degnerate
   RTIME   =    0.100 relaxation time in fs

 Orbital magnetization related:
   ORBITALMAG=     F  switch on orbital magnetization
   LCHIMAG   =     F  perturbation theory with respect to B field
   DQ        =  0.001000  dq finite difference perturbation B field



--------------------------------------------------------------------------------------------------------


 Static calculation
 charge density and potential will be updated during run
 spin polarized calculation
 Variant of blocked Davidson
 Davidson routine will perform the subspace rotation
 perform sub-space diagonalisation
    after iterative eigenvector-optimisation
 modified Broyden-mixing scheme, WC =      100.0
 initial mixing is a Kerker type mixing with AMIX =  0.4000 and BMIX =      1.0000
 Hartree-type preconditioning will be used
 using additional bands            5
 real space projection scheme for non local part
 use partial core corrections
 calculate Harris-corrections to forces 
   (improved forces if not selfconsistent)
 use gradient corrections 
 use of overlap-Matrix (Vanderbilt PP)
 Fermi weights with tetrahedron method with Bloechl corrections


--------------------------------------------------------------------------------------------------------


  energy-cutoff  :      520.00
  volume of cell :       41.43
      direct lattice vectors                 reciprocal lattice vectors
     3.363492000  0.000000000  1.941913000     0.297310058 -0.105114968  0.000000000
     1.121164000  3.171131000  1.941913000     0.000000000  0.315344904  0.000000000
     0.000000000  0.000000000  3.883826000    -0.148655029 -0.105114968  0.257478064

  length of vectors
     3.883826017  3.883826288  3.883826000     0.315344933  0.315344904  0.315344934


 
 k-points in units of 2pi/SCALE and weight: manual                                  
   0.03716376  0.02627874  0.06436952       0.062
   0.07432751 -0.02627874  0.00000000       0.062
   0.03716376  0.02627874 -0.06436952       0.062
   0.00000000  0.07883623  0.00000000       0.062
  -0.11149127  0.07883623  0.06436952       0.062
   0.03716376 -0.13139371  0.06436952       0.062
   0.11149127  0.07883623 -0.06436952       0.062
   0.00000000 -0.07883623  0.12873903       0.062
  -0.14865503  0.13139371  0.12873903       0.062
   0.07432751  0.13139371  0.00000000       0.062
   0.03716376  0.18395119 -0.06436952       0.062
   0.18581879 -0.02627874 -0.06436952       0.062
   0.11149127  0.07883623  0.06436952       0.062
   0.07432751 -0.18395119  0.12873903       0.062
  -0.07432751  0.02627874  0.12873903       0.062
   0.14865503  0.02627874  0.00000000       0.062
 
 k-points in reciprocal lattice and weights: manual                                  
   0.25000000  0.25000000  0.25000000       0.062
   0.25000000  0.00000000  0.00000000       0.062
   0.00000000 -0.00000000 -0.25000000       0.062
   0.00000000  0.25000000  0.00000000       0.062
  -0.25000000  0.25000000  0.25000000       0.062
   0.25000000 -0.25000000  0.25000000       0.062
   0.25000000  0.25000000 -0.25000000       0.062
   0.25000000  0.00000000  0.50000000       0.062
  -0.25000000  0.50000000  0.50000000       0.062
   0.25000000  0.50000000  0.00000000       0.062
   0.00000000  0.50000000 -0.25000000       0.062
   0.50000000 -0.00000000 -0.25000000       0.062
   0.50000000  0.50000000  0.25000000       0.062
   0.50000000 -0.25000000  0.50000000       0.062
   0.00000000  0.25000000  0.50000000       0.062
   0.50000000  0.25000000  0.00000000       0.062
 
 position of ions in fractional coordinates (direct lattice) 
   0.00000000  0.00000000  0.00000000
   0.75000000  0.75000000  0.75000000
   0.25000000  0.25000000  0.25000000
 
 position of ions in cartesian coordinates  (Angst):
   0.00000000  0.00000000  0.00000000
   3.36349200  2.37834825  5.82573900
   1.12116400  0.79278275  1.94191300
 


--------------------------------------------------------------------------------------------------------


 k-point  1 :   0.2500 0.2500 0.2500  plane waves:    1116
 k-point  2 :   0.2500 0.0000 0.0000  plane waves:    1116
 k-point  3 :   0.0000-0.0000-0.2500  plane waves:    1116
 k-point  4 :   0.0000 0.2500 0.0000  plane waves:    1116
 k-point  5 :  -0.2500 0.2500 0.2500  plane waves:    1116
 k-point  6 :   0.2500-0.2500 0.2500  plane waves:    1116
 k-point  7 :   0.2500 0.2500-0.2500  plane waves:    1116
 k-point  8 :   0.2500 0.0000 0.5000  plane waves:    1116
 k-point  9 :  -0.2500 0.5000 0.5000  plane waves:    1116
 k-point 10 :   0.2500 0.5000 0.0000  plane waves:    1116
 k-point 11 :   0.0000 0.5000-0.2500  plane waves:    1116
 k-point 12 :   0.5000-0.0000-0.2500  plane waves:    1116
 k-point 13 :   0.5000 0.5000 0.2500  plane waves:    1116
 k-point 14 :   0.5000-0.2500 0.5000  plane waves:    1116
 k-point 15 :   0.0000 0.2500 0.5000  plane waves:    1116
 k-point 16 :   0.5000 0.2500 0.0000  plane waves:    1116

 maximum and minimum number of plane-waves per node :      1116     1116

 maximum number of plane-waves:      1116
 maximum index in each direction: 
   IXMAX=    7   IYMAX=    7   IZMAX=    7
   IXMIN=   -7   IYMIN=   -7   IZMIN=   -7

 NGX is ok and might be reduce to  30
 NGY is ok and might be reduce to  30
 NGZ is ok and might be reduce to  30

 serial   3D FFT for wavefunctions
 parallel 3D FFT for charge:
    minimum data exchange during FFTs selected (reduces bandwidth)


 total amount of memory used by VASP on root node    46592. kBytes
========================================================================

   base      :      30000. kBytes
   nonlr-proj:       2254. kBytes
   fftplans  :       2605. kBytes
   grid      :       8102. kBytes
   one-center:         93. kBytes
   wavefun   :       3538. kBytes
 
     INWAV:  cpu time    0.0000: real time    0.0001
 Broyden mixing: mesh for mixing (old mesh)
   NGX = 15   NGY = 15   NGZ = 15
  (NGX  = 60   NGY  = 60   NGZ  = 60)
  gives a total of   3375 points

 charge density for first step will be calculated from the start-wavefunctions


--------------------------------------------------------------------------------------------------------


 Maximum index for non-local projection operator         8685
 Maximum index for augmentation-charges         8947 (set IRDMAX)


--------------------------------------------------------------------------------------------------------


 initial charge from wavefunction
 First call to EWALD:  gamma=   0.512
 Maximum number of real-space cells 3x 3x 3
 Maximum number of reciprocal cells 3x 3x 3

 FEWALD executed in parallel
    FEWALD:  cpu time    0.0024: real time    0.0024


----------------------------------------- Iteration    1(   1)  ---------------------------------------


    POTLOK:  cpu time    0.1253: real time    0.1253
    SETDIJ:  cpu time    0.0138: real time    0.0138
     EDDAV:  cpu time    1.6783: real time    1.6995
 BZINTS: Fermi energy:-30.530342; 26.000000 electrons
         Band energy:***********;  BLOECHL correction:  0.000000
       DOS:  cpu time    0.0023: real time    0.0023
    --------------------------------------------
      LOOP:  cpu time    1.8223: real time    1.8459

 eigenvalue-minimisations  :  1521
 total energy-change (2. order) :-0.5917271E+03  (-0.2763199E+04)
 number of electron      25.9999998 magnetization      -0.0000000
 augmentation part       -0.9961155 magnetization      -0.0067267

 Free energy of the ion-electron system (eV)
  ---------------------------------------------------
  alpha Z        PSCENC =       147.93194166
  Ewald energy   TEWEN  =     -1947.62834194
  -Hartree energ DENC   =       -49.25099381
  -exchange      EXHF   =         0.00000000
  -V(xc)+E(xc)   XCENC  =        49.01964678
  PAW double counting   =  21788975.80405397-21788947.64266430
  entropy T*S    EENTRO =         0.00000000
  eigenvalues    EBANDS =     -1432.36636191
  atomic energy  EATOM  =      2612.40559352
  Solvation  Ediel_sol  =         0.00000000
  ---------------------------------------------------
  free energy    TOTEN  =      -591.72712602 eV

  energy without entropy =     -591.72712602  energy(sigma->0) =     -591.72712602


--------------------------------------------------------------------------------------------------------




----------------------------------------- Iteration    1(   2)  ---------------------------------------


     EDDAV:  cpu time    1.6490: real time    1.6497
 BZINTS: Fermi energy:-45.945576; 26.000000 electrons
         Band energy:***********;  BLOECHL correction:  0.000000
       DOS:  cpu time    0.0015: real time    0.0015
    --------------------------------------------
      LOOP:  cpu time    1.6511: real time    1.6536

 eigenvalue-minimisations  :  1476
 total energy-change (2. order) :-0.1816800E+03  (-0.1810853E+03)
 number of electron      25.9999998 magnetization      -0.0000000
 augmentation part       -0.9961155 magnetization      -0.0067267

 Free energy of the ion-electron system (eV)
  ---------------------------------------------------
  alpha Z        PSCENC =       147.93194166
  Ewald energy   TEWEN  =     -1947.62834194
  -Hartree energ DENC   =       -49.25099381
  -exchange      EXHF   =         0.00000000
  -V(xc)+E(xc)   XCENC  =        49.01964678
  PAW double counting   =  21788975.80405397-21788947.64266430
  entropy T*S    EENTRO =         0.00000000
  eigenvalues    EBANDS =     -1614.04636674
  atomic energy  EATOM  =      2612.40559352
  Solvation  Ediel_sol  =         0.00000000
  ---------------------------------------------------
  free energy    TOTEN  =      -773.40713086 eV

  energy without entropy =     -773.40713086  energy(sigma->0) =     -773.40713086


--------------------------------------------------------------------------------------------------------




----------------------------------------- Iteration    1(   3)  ---------------------------------------


     EDDAV:  cpu time    1.6788: real time    1.6801
 BZINTS: Fermi energy:-46.191432; 26.000000 electrons
         Band energy:***********;  BLOECHL correction:  0.000000
       DOS:  cpu time    0.0012: real time    0.0012
    --------------------------------------------
      LOOP:  cpu time    1.6807: real time    1.6844

 eigenvalue-minimisations  :  1530
 total energy-change (2. order) :-0.5976945E+01  (-0.5973445E+01)
 number of electron      25.9999998 magnetization      -0.0000000
 augmentation part       -0.9961155 magnetization      -0.0067267

 Free energy of the ion-electron system (eV)
  ---------------------------------------------------
  alpha Z        PSCENC =       147.93194166
  Ewald energy   TEWEN  =     -1947.62834194
  -Hartree energ DENC   =       -49.25099381
  -exchange      EXHF   =         0.00000000
  -V(xc)+E(xc)   XCENC  =        49.01964678
  PAW double counting   =  21788975.80405397-21788947.64266430
  entropy T*S    EENTRO =         0.00000000
  eigenvalues    EBANDS =     -1620.02331128
  atomic energy  EATOM  =      2612.40559352
  Solvation  Ediel_sol  =         0.00000000
  ---------------------------------------------------
  free energy    TOTEN  =      -779.38407540 eV

  energy without entropy =     -779.38407540  energy(sigma->0) =     -779.38407540


--------------------------------------------------------------------------------------------------------




----------------------------------------- Iteration    1(   4)  ---------------------------------------


     EDDAV:  cpu time    1.8851: real time    1.8861
 BZINTS: Fermi energy:-46.133716; 26.000000 electrons
         Band energy:***********;  BLOECHL correction:  0.000000
       DOS:  cpu time    0.0013: real time    0.0014
    --------------------------------------------
      LOOP:  cpu time    1.8872: real time    1.8933

 eigenvalue-minimisations  :  1701
 total energy-change (2. order) :-0.1016179E+00  (-0.1016080E+00)
 number of electron      25.9999998 magnetization      -0.0000000
 augmentation part       -0.9961155 magnetization      -0.0067267

 Free energy of the ion-electron system (eV)
  ---------------------------------------------------
  alpha Z        PSCENC =       147.93194166
  Ewald energy   TEWEN  =     -1947.62834194
  -Hartree energ DENC   =       -49.25099381
  -exchange      EXHF   =         0.00000000
  -V(xc)+E(xc)   XCENC  =        49.01964678
  PAW double counting   =  21788975.80405397-21788947.64266430
  entropy T*S    EENTRO =         0.00000000
  eigenvalues    EBANDS =     -1620.12492919
  atomic energy  EATOM  =      2612.40559352
  Solvation  Ediel_sol  =         0.00000000
  ---------------------------------------------------
  free energy    TOTEN  =      -779.48569331 eV

  energy without entropy =     -779.48569331  energy(sigma->0) =     -779.48569331


--------------------------------------------------------------------------------------------------------




----------------------------------------- Iteration    1(   5)  ---------------------------------------


     EDDAV:  cpu time    1.9006: real time    1.9015
 BZINTS: Fermi energy:-46.148743; 26.000000 electrons
         Band energy:***********;  BLOECHL correction:  0.000000
       DOS:  cpu time    0.0012: real time    0.0012
    CHARGE:  cpu time    0.1069: real time    0.1069
    MIXING:  cpu time    0.0024: real time    0.0024
    --------------------------------------------
      LOOP:  cpu time    2.0117: real time    2.0150

 eigenvalue-minimisations  :  1719
 total energy-change (2. order) :-0.2095610E-02  (-0.2095588E-02)
 number of electron      25.9999991 magnetization       0.0000000
 augmentation part       12.5038145 magnetization      -0.0007663

 Broyden mixing:
  rms(total) = 0.23299E+03    rms(broyden)= 0.23299E+03
  rms(prec ) = 0.23529E+03
  weight for this iteration     100.00

 Free energy of the ion-electron system (eV)
  ---------------------------------------------------
  alpha Z        PSCENC =       147.93194166
  Ewald energy   TEWEN  =     -1947.62834194
  -Hartree energ DENC   =       -49.25099381
  -exchange      EXHF   =         0.00000000
  -V(xc)+E(xc)   XCENC  =        49.01964678
  PAW double counting   =  21788975.80405397-21788947.64266430
  entropy T*S    EENTRO =         0.00000000
  eigenvalues    EBANDS =     -1620.12702480
  atomic energy  EATOM  =      2612.40559352
  Solvation  Ediel_sol  =         0.00000000
  ---------------------------------------------------
  free energy    TOTEN  =      -779.48778892 eV

  energy without entropy =     -779.48778892  energy(sigma->0) =     -779.48778892


--------------------------------------------------------------------------------------------------------




----------------------------------------- Iteration    1(   6)  ---------------------------------------


    POTLOK:  cpu time    0.1246: real time    0.1246
    SETDIJ:  cpu time    0.0140: real time    0.0140
     EDDAV:  cpu time    1.4246: real time    1.4252
 BZINTS: Fermi energy:-26.678266; 26.000000 electrons
         Band energy:-791.322621;  BLOECHL correction:  0.000000
       DOS:  cpu time    0.0014: real time    0.0014
    CHARGE:  cpu time    0.1068: real time    0.1069
    MIXING:  cpu time    0.0025: real time    0.0025
    --------------------------------------------
      LOOP:  cpu time    1.6745: real time    1.6774

 eigenvalue-minimisations  :  1251
 total energy-change (2. order) : 0.5926695E+03  (-0.4151779E+02)
 number of electron      25.9999993 magnetization      -0.0000000
 augmentation part       11.0302322 magnetization       0.0011997

 Broyden mixing:
  rms(total) = 0.13946E+03    rms(broyden)= 0.13946E+03
  rms(prec ) = 0.14052E+03
  weight for this iteration     100.00

 eigenvalues of (default mixing * dielectric matrix)
  average eigenvalue GAMMA=   2.3439
  2.3439

 Free energy of the ion-electron system (eV)
  ---------------------------------------------------
  alpha Z        PSCENC =       147.93194166
  Ewald energy   TEWEN  =     -1947.62834194
  -Hartree energ DENC   =      -272.13403602
  -exchange      EXHF   =         0.00000000
  -V(xc)+E(xc)   XCENC  =        60.07226330
  PAW double counting   =   7965131.81741749 -7965127.96049158
  entropy T*S    EENTRO =         0.00000000
  eigenvalues    EBANDS =      -791.32262135
  atomic energy  EATOM  =      2612.40559352
  Solvation  Ediel_sol  =         0.00000000
  ---------------------------------------------------
  free energy    TOTEN  =      -186.81827492 eV

  energy without entropy =     -186.81827492  energy(sigma->0) =     -186.81827492


--------------------------------------------------------------------------------------------------------




----------------------------------------- Iteration    1(   7)  ---------------------------------------


    POTLOK:  cpu time    0.1238: real time    0.1239
    SETDIJ:  cpu time    0.0137: real time    0.0137
     EDDAV:  cpu time    1.7231: real time    1.7238
 BZINTS: Fermi energy: 10.331666; 26.000000 electrons
         Band energy: -20.613639;  BLOECHL correction:  0.000000
       DOS:  cpu time    0.0017: real time    0.0017
    CHARGE:  cpu time    0.1057: real time    0.1058
    MIXING:  cpu time    0.0026: real time    0.0026
    --------------------------------------------
      LOOP:  cpu time    1.9715: real time    1.9745

 eigenvalue-minimisations  :  1602
 total energy-change (2. order) : 0.8480346E+02  (-0.1411180E+03)
 number of electron      26.0000005 magnetization      -0.0000000
 augmentation part        6.2966225 magnetization       0.0044233

 Broyden mixing:
  rms(total) = 0.14423E+02    rms(broyden)= 0.14422E+02
  rms(prec ) = 0.21303E+02
  weight for this iteration     100.00

 eigenvalues of (default mixing * dielectric matrix)
  average eigenvalue GAMMA=   1.7529
  1.0498  2.4561

 Free energy of the ion-electron system (eV)
  ---------------------------------------------------
  alpha Z        PSCENC =       147.93194166
  Ewald energy   TEWEN  =     -1947.62834194
  -Hartree energ DENC   =      -989.70545596
  -exchange      EXHF   =         0.00000000
  -V(xc)+E(xc)   XCENC  =        98.75016472
  PAW double counting   =     47585.30764507   -47588.46272696
  entropy T*S    EENTRO =         0.00000000
  eigenvalues    EBANDS =       -20.61363890
  atomic energy  EATOM  =      2612.40559352
  Solvation  Ediel_sol  =         0.00000000
  ---------------------------------------------------
  free energy    TOTEN  =      -102.01481878 eV

  energy without entropy =     -102.01481878  energy(sigma->0) =     -102.01481878


--------------------------------------------------------------------------------------------------------




----------------------------------------- Iteration    1(   8)  ---------------------------------------


    POTLOK:  cpu time    0.1229: real time    0.1230
    SETDIJ:  cpu time    0.0137: real time    0.0137
     EDDAV:  cpu time    1.4957: real time    1.4969
 BZINTS: Fermi energy: -1.618985; 26.000000 electrons
         Band energy:-215.742112;  BLOECHL correction:  0.000000
       DOS:  cpu time    0.0015: real time    0.0015
    CHARGE:  cpu time    0.1066: real time    0.1067
    MIXING:  cpu time    0.0025: real time    0.0025
    --------------------------------------------
      LOOP:  cpu time    1.7435: real time    1.7469

 eigenvalue-minimisations  :  1305
 total energy-change (2. order) : 0.8701862E+02  (-0.6072323E+02)
 number of electron      25.9999996 magnetization      -0.0000000
 augmentation part        8.4165197 magnetization       0.0012957

 Broyden mixing:
  rms(total) = 0.80970E+01    rms(broyden)= 0.80968E+01
  rms(prec ) = 0.89224E+01
  weight for this iteration     100.00

 eigenvalues of (default mixing * dielectric matrix)
  average eigenvalue GAMMA=   1.5375
  2.5104  1.4607  0.6414

 Free energy of the ion-electron system (eV)
  ---------------------------------------------------
  alpha Z        PSCENC =       147.93194166
  Ewald energy   TEWEN  =     -1947.62834194
  -Hartree energ DENC   =      -705.34375703
  -exchange      EXHF   =         0.00000000
  -V(xc)+E(xc)   XCENC  =        79.11107034
  PAW double counting   =     14392.02119923   -14377.75179089
  entropy T*S    EENTRO =         0.00000000
  eigenvalues    EBANDS =      -215.74211155
  atomic energy  EATOM  =      2612.40559352
  Solvation  Ediel_sol  =         0.00000000
  ---------------------------------------------------
  free energy    TOTEN  =       -14.99619667 eV

  energy without entropy =      -14.99619667  energy(sigma->0) =      -14.99619667


--------------------------------------------------------------------------------------------------------




----------------------------------------- Iteration    1(   9)  ---------------------------------------


    POTLOK:  cpu time    0.1217: real time    0.1217
    SETDIJ:  cpu time    0.0141: real time    0.0142
     EDDAV:  cpu time    1.5075: real time    1.5082
 BZINTS: Fermi energy: -4.006650; 26.000000 electrons
         Band energy:-245.585369;  BLOECHL correction:  0.000000
       DOS:  cpu time    0.0014: real time    0.0014
    CHARGE:  cpu time    0.1067: real time    0.1067
    MIXING:  cpu time    0.0026: real time    0.0026
    --------------------------------------------
      LOOP:  cpu time    1.7547: real time    1.7578

 eigenvalue-minimisations  :  1296
 total energy-change (2. order) :-0.5165421E+00  (-0.4299325E+01)
 number of electron      25.9999996 magnetization      -0.0000000
 augmentation part        8.7826363 magnetization       0.0001662

 Broyden mixing:
  rms(total) = 0.34609E+01    rms(broyden)= 0.34609E+01
  rms(prec ) = 0.48914E+01
  weight for this iteration     100.00

 eigenvalues of (default mixing * dielectric matrix)
  average eigenvalue GAMMA=   1.2958
  2.5220  1.5743  0.6101  0.4767

 Free energy of the ion-electron system (eV)
  ---------------------------------------------------
  alpha Z        PSCENC =       147.93194166
  Ewald energy   TEWEN  =     -1947.62834194
  -Hartree energ DENC   =      -682.13686059
  -exchange      EXHF   =         0.00000000
  -V(xc)+E(xc)   XCENC  =        77.67236856
  PAW double counting   =      3052.30793607    -3030.48000697
  entropy T*S    EENTRO =         0.00000000
  eigenvalues    EBANDS =      -245.58536908
  atomic energy  EATOM  =      2612.40559352
  Solvation  Ediel_sol  =         0.00000000
  ---------------------------------------------------
  free energy    TOTEN  =       -15.51273877 eV

  energy without entropy =      -15.51273877  energy(sigma->0) =      -15.51273877


--------------------------------------------------------------------------------------------------------




----------------------------------------- Iteration    1(  10)  ---------------------------------------


    POTLOK:  cpu time    0.1221: real time    0.1221
    SETDIJ:  cpu time    0.0137: real time    0.0137
     EDDAV:  cpu time    1.9677: real time    1.9686
 BZINTS: Fermi energy: -3.948697; 26.000000 electrons
         Band energy:-229.114911;  BLOECHL correction:  0.000000
       DOS:  cpu time    0.0012: real time    0.0012
    CHARGE:  cpu time    0.1064: real time    0.1064
    MIXING:  cpu time    0.0029: real time    0.0029
    --------------------------------------------
      LOOP:  cpu time    2.2146: real time    2.2176

 eigenvalue-minimisations  :  1782
 total energy-change (2. order) : 0.2623185E+01  (-0.1873240E+00)
 number of electron      25.9999997 magnetization       0.0000000
 augmentation part        8.7067654 magnetization       0.0003188

 Broyden mixing:
  rms(total) = 0.24264E+01    rms(broyden)= 0.24263E+01
  rms(prec ) = 0.34097E+01
  weight for this iteration     100.00

 eigenvalues of (default mixing * dielectric matrix)
  average eigenvalue GAMMA=   1.3595
  2.5216  1.8076  0.9210  0.9210  0.6265

 Free energy of the ion-electron system (eV)
  ---------------------------------------------------
  alpha Z        PSCENC =       147.93194166
  Ewald energy   TEWEN  =     -1947.62834194
  -Hartree energ DENC   =      -698.05671617
  -exchange      EXHF   =         0.00000000
  -V(xc)+E(xc)   XCENC  =        78.69630532
  PAW double counting   =      2803.55183900    -2780.67526378
  entropy T*S    EENTRO =         0.00000000
  eigenvalues    EBANDS =      -229.11491145
  atomic energy  EATOM  =      2612.40559352
  Solvation  Ediel_sol  =         0.00000000
  ---------------------------------------------------
  free energy    TOTEN  =       -12.88955384 eV

  energy without entropy =      -12.88955384  energy(sigma->0) =      -12.88955384


--------------------------------------------------------------------------------------------------------




----------------------------------------- Iteration    1(  11)  ---------------------------------------


    POTLOK:  cpu time    0.1271: real time    0.1272
    SETDIJ:  cpu time    0.0138: real time    0.0138
     EDDAV:  cpu time    1.5519: real time    1.5526
 BZINTS: Fermi energy: -2.884673; 26.000000 electrons
         Band energy:-206.037290;  BLOECHL correction:  0.000000
       DOS:  cpu time    0.0014: real time    0.0014
    CHARGE:  cpu time    0.1054: real time    0.1055
    MIXING:  cpu time    0.0029: real time    0.0029
    --------------------------------------------
      LOOP:  cpu time    1.8033: real time    1.8069

 eigenvalue-minimisations  :  1386
 total energy-change (2. order) : 0.1839733E+01  (-0.2774195E+00)
 number of electron      25.9999997 magnetization       0.0000000
 augmentation part        8.5796496 magnetization       0.0002031

 Broyden mixing:
  rms(total) = 0.82893E+00    rms(broyden)= 0.82886E+00
  rms(prec ) = 0.12654E+01
  weight for this iteration     100.00

 eigenvalues of (default mixing * dielectric matrix)
  average eigenvalue GAMMA=   1.3650
  2.5482  2.0267  1.0975  1.0975  0.7943  0.6256

 Free energy of the ion-electron system (eV)
  ---------------------------------------------------
  alpha Z        PSCENC =       147.93194166
  Ewald energy   TEWEN  =     -1947.62834194
  -Hartree energ DENC   =      -722.70401828
  -exchange      EXHF   =         0.00000000
  -V(xc)+E(xc)   XCENC  =        80.18670323
  PAW double counting   =      2654.93740152    -2630.14181031
  entropy T*S    EENTRO =         0.00000000
  eigenvalues    EBANDS =      -206.03729024
  atomic energy  EATOM  =      2612.40559352
  Solvation  Ediel_sol  =         0.00000000
  ---------------------------------------------------
  free energy    TOTEN  =       -11.04982084 eV

  energy without entropy =      -11.04982084  energy(sigma->0) =      -11.04982084


--------------------------------------------------------------------------------------------------------




----------------------------------------- Iteration    1(  12)  ---------------------------------------


    POTLOK:  cpu time    0.1305: real time    0.1305
    SETDIJ:  cpu time    0.0138: real time    0.0138
     EDDAV:  cpu time    1.3347: real time    1.3353
 BZINTS: Fermi energy: -1.879562; 26.000000 electrons
         Band energy:-189.260975;  BLOECHL correction:  0.000000
       DOS:  cpu time    0.0014: real time    0.0014
    CHARGE:  cpu time    0.1069: real time    0.1070
    MIXING:  cpu time    0.0029: real time    0.0029
    --------------------------------------------
      LOOP:  cpu time    1.5909: real time    1.5938

 eigenvalue-minimisations  :  1152
 total energy-change (2. order) : 0.1481505E+00  (-0.2123926E+00)
 number of electron      25.9999998 magnetization      -0.0000000
 augmentation part        8.4435306 magnetization      -0.0002345

 Broyden mixing:
  rms(total) = 0.17389E+00    rms(broyden)= 0.17371E+00
  rms(prec ) = 0.30400E+00
  weight for this iteration     100.00

 eigenvalues of (default mixing * dielectric matrix)
  average eigenvalue GAMMA=   1.5111
  3.0012  2.4638  1.5677  1.0759  1.0759  0.7678  0.6252

 Free energy of the ion-electron system (eV)
  ---------------------------------------------------
  alpha Z        PSCENC =       147.93194166
  Ewald energy   TEWEN  =     -1947.62834194
  -Hartree energ DENC   =      -741.84474750
  -exchange      EXHF   =         0.00000000
  -V(xc)+E(xc)   XCENC  =        81.26914505
  PAW double counting   =      2508.28070260    -2482.05498876
  entropy T*S    EENTRO =         0.00000000
  eigenvalues    EBANDS =      -189.26097496
  atomic energy  EATOM  =      2612.40559352
  Solvation  Ediel_sol  =         0.00000000
  ---------------------------------------------------
  free energy    TOTEN  =       -10.90167034 eV

  energy without entropy =      -10.90167034  energy(sigma->0) =      -10.90167034


--------------------------------------------------------------------------------------------------------




----------------------------------------- Iteration    1(  13)  ---------------------------------------


    POTLOK:  cpu time    0.1217: real time    0.1218
    SETDIJ:  cpu time    0.0138: real time    0.0138
     EDDAV:  cpu time    1.4213: real time    1.4219
 BZINTS: Fermi energy: -1.833576; 26.000000 electrons
         Band energy:-186.704427;  BLOECHL correction:  0.000000
       DOS:  cpu time    0.0012: real time    0.0012
    CHARGE:  cpu time    0.1088: real time    0.1089
    MIXING:  cpu time    0.0032: real time    0.0032
    --------------------------------------------
      LOOP:  cpu time    1.6708: real time    1.6737

 eigenvalue-minimisations  :  1242
 total energy-change (2. order) :-0.2217365E-01  (-0.1302653E-01)
 number of electron      25.9999998 magnetization       0.0000000
 augmentation part        8.4383590 magnetization       0.0000672

 Broyden mixing:
  rms(total) = 0.16250E+00    rms(broyden)= 0.16250E+00
  rms(prec ) = 0.21211E+00
  weight for this iteration     100.00

 eigenvalues of (default mixing * dielectric matrix)
  average eigenvalue GAMMA=   1.4375
  2.9109  2.4713  1.6236  1.1533  1.1533  0.6253  0.7812  0.7812

 Free energy of the ion-electron system (eV)
  ---------------------------------------------------
  alpha Z        PSCENC =       147.93194166
  Ewald energy   TEWEN  =     -1947.62834194
  -Hartree energ DENC   =      -745.52270536
  -exchange      EXHF   =         0.00000000
  -V(xc)+E(xc)   XCENC  =        81.41278099
  PAW double counting   =      2463.02527606    -2435.84396182
  entropy T*S    EENTRO =         0.00000000
  eigenvalues    EBANDS =      -186.70442710
  atomic energy  EATOM  =      2612.40559352
  Solvation  Ediel_sol  =         0.00000000
  ---------------------------------------------------
  free energy    TOTEN  =       -10.92384399 eV

  energy without entropy =      -10.92384399  energy(sigma->0) =      -10.92384399


--------------------------------------------------------------------------------------------------------




----------------------------------------- Iteration    1(  14)  ---------------------------------------


    POTLOK:  cpu time    0.1335: real time    0.1336
    SETDIJ:  cpu time    0.0138: real time    0.0138
     EDDAV:  cpu time    1.4299: real time    1.4311
 BZINTS: Fermi energy: -1.871003; 26.000000 electrons
         Band energy:-187.631137;  BLOECHL correction:  0.000000
       DOS:  cpu time    0.0012: real time    0.0012
    CHARGE:  cpu time    0.1050: real time    0.1051
    MIXING:  cpu time    0.0032: real time    0.0032
    --------------------------------------------
      LOOP:  cpu time    1.6874: real time    1.6924

 eigenvalue-minimisations  :  1170
 total energy-change (2. order) : 0.2268116E-02  (-0.6922858E-03)
 number of electron      25.9999998 magnetization      -0.0000000
 augmentation part        8.4443633 magnetization      -0.0000330

 Broyden mixing:
  rms(total) = 0.89150E-01    rms(broyden)= 0.89150E-01
  rms(prec ) = 0.12578E+00
  weight for this iteration     100.00

 eigenvalues of (default mixing * dielectric matrix)
  average eigenvalue GAMMA=   1.4315
  3.0258  2.4852  1.6891  1.2765  1.2765  0.9226  0.9226  0.6251  0.6600

 Free energy of the ion-electron system (eV)
  ---------------------------------------------------
  alpha Z        PSCENC =       147.93194166
  Ewald energy   TEWEN  =     -1947.62834194
  -Hartree energ DENC   =      -744.37273443
  -exchange      EXHF   =         0.00000000
  -V(xc)+E(xc)   XCENC  =        81.34313888
  PAW double counting   =      2482.74669732    -2455.71673422
  entropy T*S    EENTRO =         0.00000000
  eigenvalues    EBANDS =      -187.63113667
  atomic energy  EATOM  =      2612.40559352
  Solvation  Ediel_sol  =         0.00000000
  ---------------------------------------------------
  free energy    TOTEN  =       -10.92157588 eV

  energy without entropy =      -10.92157588  energy(sigma->0) =      -10.92157588


--------------------------------------------------------------------------------------------------------




----------------------------------------- Iteration    1(  15)  ---------------------------------------


    POTLOK:  cpu time    0.1261: real time    0.1261
    SETDIJ:  cpu time    0.0140: real time    0.0140
     EDDAV:  cpu time    1.4189: real time    1.4195
 BZINTS: Fermi energy: -1.894367; 26.000000 electrons
         Band energy:-188.240201;  BLOECHL correction:  0.000000
       DOS:  cpu time    0.0012: real time    0.0012
    CHARGE:  cpu time    0.1056: real time    0.1057
    MIXING:  cpu time    0.0034: real time    0.0034
    --------------------------------------------
      LOOP:  cpu time    1.6699: real time    1.6729

 eigenvalue-minimisations  :  1224
 total energy-change (2. order) : 0.6038055E-03  (-0.3359138E-03)
 number of electron      25.9999998 magnetization      -0.0000000
 augmentation part        8.4506494 magnetization      -0.0000099

 Broyden mixing:
  rms(total) = 0.51447E-01    rms(broyden)= 0.51447E-01
  rms(prec ) = 0.71112E-01
  weight for this iteration     100.00

 eigenvalues of (default mixing * dielectric matrix)
  average eigenvalue GAMMA=   1.4713
  2.9548  2.5080  2.5080  1.5710  1.1129  1.1129  0.8734  0.8003  0.6251  0.6467

 Free energy of the ion-electron system (eV)
  ---------------------------------------------------
  alpha Z        PSCENC =       147.93194166
  Ewald energy   TEWEN  =     -1947.62834194
  -Hartree energ DENC   =      -743.66015105
  -exchange      EXHF   =         0.00000000
  -V(xc)+E(xc)   XCENC  =        81.29661178
  PAW double counting   =      2482.91498544    -2455.94141097
  entropy T*S    EENTRO =         0.00000000
  eigenvalues    EBANDS =      -188.24020052
  atomic energy  EATOM  =      2612.40559352
  Solvation  Ediel_sol  =         0.00000000
  ---------------------------------------------------
  free energy    TOTEN  =       -10.92097207 eV

  energy without entropy =      -10.92097207  energy(sigma->0) =      -10.92097207


--------------------------------------------------------------------------------------------------------




----------------------------------------- Iteration    1(  16)  ---------------------------------------


    POTLOK:  cpu time    0.1236: real time    0.1237
    SETDIJ:  cpu time    0.0140: real time    0.0141
     EDDAV:  cpu time    1.3661: real time    1.3667
 BZINTS: Fermi energy: -1.925474; 26.000000 electrons
         Band energy:-188.962647;  BLOECHL correction:  0.000000
       DOS:  cpu time    0.0012: real time    0.0012
    CHARGE:  cpu time    0.1051: real time    0.1051
    MIXING:  cpu time    0.0036: real time    0.0036
    --------------------------------------------
      LOOP:  cpu time    1.6144: real time    1.6171

 eigenvalue-minimisations  :  1206
 total energy-change (2. order) : 0.7253209E-03  (-0.3528609E-03)
 number of electron      25.9999998 magnetization      -0.0000000
 augmentation part        8.4571048 magnetization       0.0000058

 Broyden mixing:
  rms(total) = 0.23732E-02    rms(broyden)= 0.23438E-02
  rms(prec ) = 0.42448E-02
  weight for this iteration     100.00

 eigenvalues of (default mixing * dielectric matrix)
  average eigenvalue GAMMA=   1.4474
  3.1093  2.7823  2.4838  1.5640  1.1388  1.1388  0.9065  0.8457  0.6952  0.6246
  0.6321

 Free energy of the ion-electron system (eV)
  ---------------------------------------------------
  alpha Z        PSCENC =       147.93194166
  Ewald energy   TEWEN  =     -1947.62834194
  -Hartree energ DENC   =      -742.81019751
  -exchange      EXHF   =         0.00000000
  -V(xc)+E(xc)   XCENC  =        81.24035452
  PAW double counting   =      2484.43288378    -2457.52983355
  entropy T*S    EENTRO =         0.00000000
  eigenvalues    EBANDS =      -188.96264723
  atomic energy  EATOM  =      2612.40559352
  Solvation  Ediel_sol  =         0.00000000
  ---------------------------------------------------
  free energy    TOTEN  =       -10.92024675 eV

  energy without entropy =      -10.92024675  energy(sigma->0) =      -10.92024675


--------------------------------------------------------------------------------------------------------




----------------------------------------- Iteration    1(  17)  ---------------------------------------


    POTLOK:  cpu time    0.1214: real time    0.1215
    SETDIJ:  cpu time    0.0138: real time    0.0138
     EDDAV:  cpu time    1.3237: real time    1.3242
 BZINTS: Fermi energy: -1.925792; 26.000000 electrons
         Band energy:-188.942780;  BLOECHL correction:  0.000000
       DOS:  cpu time    0.0012: real time    0.0012
    CHARGE:  cpu time    0.1065: real time    0.1066
    MIXING:  cpu time    0.0039: real time    0.0039
    --------------------------------------------
      LOOP:  cpu time    1.5714: real time    1.5744

 eigenvalue-minimisations  :  1161
 total energy-change (2. order) :-0.3974107E-04  (-0.2517964E-04)
 number of electron      25.9999998 magnetization       0.0000000
 augmentation part        8.4574678 magnetization       0.0000008

 Broyden mixing:
  rms(total) = 0.23031E-02    rms(broyden)= 0.23022E-02
  rms(prec ) = 0.43436E-02
  weight for this iteration     100.00

 eigenvalues of (default mixing * dielectric matrix)
  average eigenvalue GAMMA=   1.4070
  2.9529  2.9529  2.4660  1.5039  1.1831  1.1831  0.9467  0.9467  0.6254  0.6369
  0.7431  0.7431

 Free energy of the ion-electron system (eV)
  ---------------------------------------------------
  alpha Z        PSCENC =       147.93194166
  Ewald energy   TEWEN  =     -1947.62834194
  -Hartree energ DENC   =      -742.82790336
  -exchange      EXHF   =         0.00000000
  -V(xc)+E(xc)   XCENC  =        81.24110616
  PAW double counting   =      2485.29109488    -2458.39099790
  entropy T*S    EENTRO =         0.00000000
  eigenvalues    EBANDS =      -188.94277951
  atomic energy  EATOM  =      2612.40559352
  Solvation  Ediel_sol  =         0.00000000
  ---------------------------------------------------
  free energy    TOTEN  =       -10.92028649 eV

  energy without entropy =      -10.92028649  energy(sigma->0) =      -10.92028649


--------------------------------------------------------------------------------------------------------




----------------------------------------- Iteration    1(  18)  ---------------------------------------


    POTLOK:  cpu time    0.1229: real time    0.1229
    SETDIJ:  cpu time    0.0145: real time    0.0145
     EDDAV:  cpu time    1.5047: real time    1.5055
 BZINTS: Fermi energy: -1.924915; 26.000000 electrons
         Band energy:-188.891172;  BLOECHL correction:  0.000000
       DOS:  cpu time    0.0012: real time    0.0012
    CHARGE:  cpu time    0.1052: real time    0.1052
    MIXING:  cpu time    0.0040: real time    0.0040
    --------------------------------------------
      LOOP:  cpu time    1.7532: real time    1.7560

 eigenvalue-minimisations  :  1296
 total energy-change (2. order) : 0.2605841E-05  (-0.1639005E-05)
 number of electron      25.9999998 magnetization      -0.0000000
 augmentation part        8.4568737 magnetization      -0.0000003

 Broyden mixing:
  rms(total) = 0.16031E-02    rms(broyden)= 0.16031E-02
  rms(prec ) = 0.18110E-02
  weight for this iteration     100.00

 eigenvalues of (default mixing * dielectric matrix)
  average eigenvalue GAMMA=   1.4265
  2.9470  2.9470  2.4299  1.8342  1.5167  1.1190  1.1190  1.0241  0.8648  0.7425
  0.7425  0.6256  0.6326

 Free energy of the ion-electron system (eV)
  ---------------------------------------------------
  alpha Z        PSCENC =       147.93194166
  Ewald energy   TEWEN  =     -1947.62834194
  -Hartree energ DENC   =      -742.88170356
  -exchange      EXHF   =         0.00000000
  -V(xc)+E(xc)   XCENC  =        81.24420609
  PAW double counting   =      2486.97255158    -2460.07335894
  entropy T*S    EENTRO =         0.00000000
  eigenvalues    EBANDS =      -188.89117230
  atomic energy  EATOM  =      2612.40559352
  Solvation  Ediel_sol  =         0.00000000
  ---------------------------------------------------
  free energy    TOTEN  =       -10.92028389 eV

  energy without entropy =      -10.92028389  energy(sigma->0) =      -10.92028389


--------------------------------------------------------------------------------------------------------




----------------------------------------- Iteration    1(  19)  ---------------------------------------


    POTLOK:  cpu time    0.1214: real time    0.1215
    SETDIJ:  cpu time    0.0138: real time    0.0138
     EDDAV:  cpu time    1.3532: real time    1.3546
 BZINTS: Fermi energy: -1.924166; 26.000000 electrons
         Band energy:-188.870269;  BLOECHL correction:  0.000000
       DOS:  cpu time    0.0013: real time    0.0013
    CHARGE:  cpu time    0.1059: real time    0.1059
    MIXING:  cpu time    0.0042: real time    0.0042
    --------------------------------------------
      LOOP:  cpu time    1.6004: real time    1.6042

 eigenvalue-minimisations  :  1152
 total energy-change (2. order) :-0.8920233E-06  (-0.3616977E-06)
 number of electron      25.9999998 magnetization       0.0000000
 augmentation part        8.4567168 magnetization      -0.0000002

 Broyden mixing:
  rms(total) = 0.53111E-03    rms(broyden)= 0.53102E-03
  rms(prec ) = 0.82640E-03
  weight for this iteration     100.00

 eigenvalues of (default mixing * dielectric matrix)
  average eigenvalue GAMMA=   1.4255
  3.1742  2.6212  2.4991  2.4991  1.3914  1.1033  1.1033  1.1245  1.0374  0.7487
  0.7487  0.6616  0.6243  0.6201

 Free energy of the ion-electron system (eV)
  ---------------------------------------------------
  alpha Z        PSCENC =       147.93194166
  Ewald energy   TEWEN  =     -1947.62834194
  -Hartree energ DENC   =      -742.91084189
  -exchange      EXHF   =         0.00000000
  -V(xc)+E(xc)   XCENC  =        81.24596726
  PAW double counting   =      2487.12028418    -2460.21461835
  entropy T*S    EENTRO =         0.00000000
  eigenvalues    EBANDS =      -188.87026922
  atomic energy  EATOM  =      2612.40559352
  Solvation  Ediel_sol  =         0.00000000
  ---------------------------------------------------
  free energy    TOTEN  =       -10.92028478 eV

  energy without entropy =      -10.92028478  energy(sigma->0) =      -10.92028478


--------------------------------------------------------------------------------------------------------




----------------------------------------- Iteration    1(  20)  ---------------------------------------


    POTLOK:  cpu time    0.1258: real time    0.1258
    SETDIJ:  cpu time    0.0138: real time    0.0138
     EDDAV:  cpu time    1.2566: real time    1.2577
 BZINTS: Fermi energy: -1.924441; 26.000000 electrons
         Band energy:-188.877129;  BLOECHL correction:  0.000000
       DOS:  cpu time    0.0012: real time    0.0012
    --------------------------------------------
      LOOP:  cpu time    1.3980: real time    1.4011

 eigenvalue-minimisations  :  1026
 total energy-change (2. order) : 0.2413299E-07  (-0.4004738E-07)
 number of electron      25.9999998 magnetization       0.0000000
 augmentation part        8.4567168 magnetization      -0.0000002

 Free energy of the ion-electron system (eV)
  ---------------------------------------------------
  alpha Z        PSCENC =       147.93194166
  Ewald energy   TEWEN  =     -1947.62834194
  -Hartree energ DENC   =      -742.90443942
  -exchange      EXHF   =         0.00000000
  -V(xc)+E(xc)   XCENC  =        81.24555249
  PAW double counting   =      2486.97547121    -2460.06893326
  entropy T*S    EENTRO =         0.00000000
  eigenvalues    EBANDS =      -188.87712901
  atomic energy  EATOM  =      2612.40559352
  Solvation  Ediel_sol  =         0.00000000
  ---------------------------------------------------
  free energy    TOTEN  =       -10.92028475 eV

  energy without entropy =      -10.92028475  energy(sigma->0) =      -10.92028475


--------------------------------------------------------------------------------------------------------




 average (electrostatic) potential at core
  the test charge radii are     1.0698  0.7167
  (the norm of the test charge is              1.0000)
       1 -39.5550       2 -78.1826       3 -78.1826
 
 
 
 E-fermi :  -1.9244     XC(G=0): -10.1044     alpha+bet : -6.6665


 spin component 1

 k-point     1 :       0.2500    0.2500    0.2500
  band No.  band energies     occupation 
      1     -22.0808      1.00000
      2     -21.4268      1.00000
      3      -7.0291      1.00000
      4      -7.0291      1.00000
      5      -6.6760      1.00000
      6      -6.2419      1.00000
      7      -6.2419      1.00000
      8      -3.7264      1.00000
      9      -2.9606      1.00000
     10      -2.9606      1.00000
     11      -2.8179      1.00000
     12      -2.2136      1.00000
     13      -2.2136      1.00000
     14       2.9356      0.00000
     15       8.8225      0.00000
     16      11.4238      0.00000
     17      11.4238      0.00000
     18      16.6690      0.00000

 k-point     2 :       0.2500    0.0000    0.0000
  band No.  band energies     occupation 
      1     -22.0808      1.00000
      2     -21.4268      1.00000
      3      -7.0291      1.00000
      4      -7.0291      1.00000
      5      -6.6760      1.00000
      6      -6.2419      1.00000
      7      -6.2419      1.00000
      8      -3.7264      1.00000
      9      -2.9606      1.00000
     10      -2.9606      1.00000
     11      -2.8179      1.00000
     12      -2.2136      1.00000
     13      -2.2136      1.00000
     14       2.9356      0.00000
     15       8.8225      0.00000
     16      11.4238      0.00000
     17      11.4238      0.00000
     18      16.6690      0.00000

 k-point     3 :       0.0000   -0.0000   -0.2500
  band No.  band energies     occupation 
      1     -22.0808      1.00000
      2     -21.4268      1.00000
      3      -7.0291      1.00000
      4      -7.0291      1.00000
      5      -6.6760      1.00000
      6      -6.2419      1.00000
      7      -6.2419      1.00000
      8      -3.7264      1.00000
      9      -2.9606      1.00000
     10      -2.9606      1.00000
     11      -2.8179      1.00000
     12      -2.2136      1.00000
     13      -2.2136      1.00000
     14       2.9356      0.00000
     15       8.8225      0.00000
     16      11.4238      0.00000
     17      11.4238      0.00000
     18      16.6690      0.00000

 k-point     4 :       0.0000    0.2500    0.0000
  band No.  band energies     occupation 
      1     -22.0808      1.00000
      2     -21.4268      1.00000
      3      -7.0291      1.00000
      4      -7.0291      1.00000
      5      -6.6760      1.00000
      6      -6.2419      1.00000
      7      -6.2419      1.00000
      8      -3.7264      1.00000
      9      -2.9606      1.00000
     10      -2.9606      1.00000
     11      -2.8179      1.00000
     12      -2.2136      1.00000
     13      -2.2136      1.00000
     14       2.9356      0.00000
     15       8.8225      0.00000
     16      11.4238      0.00000
     17      11.4238      0.00000
     18      16.6690      0.00000

 k-point     5 :      -0.2500    0.2500    0.2500
  band No.  band energies     occupation 
      1     -21.8268      1.00000
      2     -21.6370      1.00000
      3      -6.7784      1.00000
      4      -6.6816      1.00000
      5      -6.3902      1.00000
      6      -6.1696      1.00000
      7      -6.1142      1.00000
      8      -4.7563      1.00000
      9      -3.8496      1.00000
     10      -3.8331      1.00000
     11      -2.5840      1.00000
     12      -2.1104      1.00000
     13      -1.9809      1.00000
     14       5.2270      0.00000
     15       7.9981      0.00000
     16      10.6127      0.00000
     17      12.1041      0.00000
     18      12.7686      0.00000

 k-point     6 :       0.2500   -0.2500    0.2500
  band No.  band energies     occupation 
      1     -21.8268      1.00000
      2     -21.6370      1.00000
      3      -6.7784      1.00000
      4      -6.6816      1.00000
      5      -6.3902      1.00000
      6      -6.1696      1.00000
      7      -6.1142      1.00000
      8      -4.7563      1.00000
      9      -3.8496      1.00000
     10      -3.8331      1.00000
     11      -2.5840      1.00000
     12      -2.1104      1.00000
     13      -1.9809      1.00000
     14       5.2270      0.00000
     15       7.9981      0.00000
     16      10.6127      0.00000
     17      12.1041      0.00000
     18      12.7686      0.00000

 k-point     7 :       0.2500    0.2500   -0.2500
  band No.  band energies     occupation 
      1     -21.8268      1.00000
      2     -21.6370      1.00000
      3      -6.7784      1.00000
      4      -6.6816      1.00000
      5      -6.3902      1.00000
      6      -6.1696      1.00000
      7      -6.1142      1.00000
      8      -4.7563      1.00000
      9      -3.8496      1.00000
     10      -3.8331      1.00000
     11      -2.5840      1.00000
     12      -2.1104      1.00000
     13      -1.9809      1.00000
     14       5.2270      0.00000
     15       7.9981      0.00000
     16      10.6127      0.00000
     17      12.1041      0.00000
     18      12.7686      0.00000

 k-point     8 :       0.2500    0.0000    0.5000
  band No.  band energies     occupation 
      1     -21.8268      1.00000
      2     -21.6370      1.00000
      3      -6.7784      1.00000
      4      -6.6816      1.00000
      5      -6.3902      1.00000
      6      -6.1696      1.00000
      7      -6.1142      1.00000
      8      -4.7563      1.00000
      9      -3.8496      1.00000
     10      -3.8331      1.00000
     11      -2.5840      1.00000
     12      -2.1104      1.00000
     13      -1.9809      1.00000
     14       5.2270      0.00000
     15       7.9981      0.00000
     16      10.6127      0.00000
     17      12.1041      0.00000
     18      12.7686      0.00000

 k-point     9 :      -0.2500    0.5000    0.5000
  band No.  band energies     occupation 
      1     -21.8268      1.00000
      2     -21.6370      1.00000
      3      -6.7784      1.00000
      4      -6.6816      1.00000
      5      -6.3902      1.00000
      6      -6.1696      1.00000
      7      -6.1142      1.00000
      8      -4.7563      1.00000
      9      -3.8496      1.00000
     10      -3.8331      1.00000
     11      -2.5840      1.00000
     12      -2.1104      1.00000
     13      -1.9809      1.00000
     14       5.2270      0.00000
     15       7.9981      0.00000
     16      10.6127      0.00000
     17      12.1041      0.00000
     18      12.7686      0.00000

 k-point    10 :       0.2500    0.5000    0.0000
  band No.  band energies     occupation 
      1     -21.8268      1.00000
      2     -21.6370      1.00000
      3      -6.7784      1.00000
      4      -6.6816      1.00000
      5      -6.3902      1.00000
      6      -6.1696      1.00000
      7      -6.1142      1.00000
      8      -4.7563      1.00000
      9      -3.8496      1.00000
     10      -3.8331      1.00000
     11      -2.5840      1.00000
     12      -2.1104      1.00000
     13      -1.9809      1.00000
     14       5.2270      0.00000
     15       7.9981      0.00000
     16      10.6127      0.00000
     17      12.1041      0.00000
     18      12.7686      0.00000

 k-point    11 :       0.0000    0.5000   -0.2500
  band No.  band energies     occupation 
      1     -21.8268      1.00000
      2     -21.6370      1.00000
      3      -6.7784      1.00000
      4      -6.6816      1.00000
      5      -6.3902      1.00000
      6      -6.1696      1.00000
      7      -6.1142      1.00000
      8      -4.7563      1.00000
      9      -3.8496      1.00000
     10      -3.8331      1.00000
     11      -2.5840      1.00000
     12      -2.1104      1.00000
     13      -1.9809      1.00000
     14       5.2270      0.00000
     15       7.9981      0.00000
     16      10.6127      0.00000
     17      12.1041      0.00000
     18      12.7686      0.00000

 k-point    12 :       0.5000   -0.0000   -0.2500
  band No.  band energies     occupation 
      1     -21.8268      1.00000
      2     -21.6370      1.00000
      3      -6.7784      1.00000
      4      -6.6816      1.00000
      5      -6.3902      1.00000
      6      -6.1696      1.00000
      7      -6.1142      1.00000
      8      -4.7563      1.00000
      9      -3.8496      1.00000
     10      -3.8331      1.00000
     11      -2.5840      1.00000
     12      -2.1104      1.00000
     13      -1.9809      1.00000
     14       5.2270      0.00000
     15       7.9981      0.00000
     16      10.6127      0.00000
     17      12.1041      0.00000
     18      12.7686      0.00000

 k-point    13 :       0.5000    0.5000    0.2500
  band No.  band energies     occupation 
      1     -21.8268      1.00000
      2     -21.6370      1.00000
      3      -6.7784      1.00000
      4      -6.6816      1.00000
      5      -6.3902      1.00000
      6      -6.1696      1.00000
      7      -6.1142      1.00000
      8      -4.7563      1.00000
      9      -3.8496      1.00000
     10      -3.8331      1.00000
     11      -2.5840      1.00000
     12      -2.1104      1.00000
     13      -1.9809      1.00000
     14       5.2270      0.00000
     15       7.9981      0.00000
     16      10.6127      0.00000
     17      12.1041      0.00000
     18      12.7686      0.00000

 k-point    14 :       0.5000   -0.2500    0.5000
  band No.  band energies     occupation 
      1     -21.8268      1.00000
      2     -21.6370      1.00000
      3      -6.7784      1.00000
      4      -6.6816      1.00000
      5      -6.3902      1.00000
      6      -6.1696      1.00000
      7      -6.1142      1.00000
      8      -4.7563      1.00000
      9      -3.8496      1.00000
     10      -3.8331      1.00000
     11      -2.5840      1.00000
     12      -2.1104      1.00000
     13      -1.9809      1.00000
     14       5.2270      0.00000
     15       7.9981      0.00000
     16      10.6127      0.00000
     17      12.1041      0.00000
     18      12.7686      0.00000

 k-point    15 :       0.0000    0.2500    0.5000
  band No.  band energies     occupation 
      1     -21.8268      1.00000
      2     -21.6370      1.00000
      3      -6.7784      1.00000
      4      -6.6816      1.00000
      5      -6.3902      1.00000
      6      -6.1696      1.00000
      7      -6.1142      1.00000
      8      -4.7563      1.00000
      9      -3.8496      1.00000
     10      -3.8331      1.00000
     11      -2.5840      1.00000
     12      -2.1104      1.00000
     13      -1.9809      1.00000
     14       5.2270      0.00000
     15       7.9981      0.00000
     16      10.6127      0.00000
     17      12.1041      0.00000
     18      12.7686      0.00000

 k-point    16 :       0.5000    0.2500    0.0000
  band No.  band energies     occupation 
      1     -21.8268      1.00000
      2     -21.6370      1.00000
      3      -6.7784      1.00000
      4      -6.6816      1.00000
      5      -6.3902      1.00000
      6      -6.1696      1.00000
      7      -6.1142      1.00000
      8      -4.7563      1.00000
      9      -3.8496      1.00000
     10      -3.8331      1.00000
     11      -2.5840      1.00000
     12      -2.1104      1.00000
     13      -1.9809      1.00000
     14       5.2270      0.00000
     15       7.9981      0.00000
     16      10.6127      0.00000
     17      12.1041      0.00000
     18      12.7686      0.00000

 spin component 2

 k-point     1 :       0.2500    0.2500    0.2500
  band No.  band energies     occupation 
      1     -22.0808      1.00000
      2     -21.4268      1.00000
      3      -7.0291      1.00000
      4      -7.0291      1.00000
      5      -6.6760      1.00000
      6      -6.2419      1.00000
      7      -6.2419      1.00000
      8      -3.7264      1.00000
      9      -2.9606      1.00000
     10      -2.9606      1.00000
     11      -2.8179      1.00000
     12      -2.2136      1.00000
     13      -2.2136      1.00000
     14       2.9356      0.00000
     15       8.8225      0.00000
     16      11.4238      0.00000
     17      11.4238      0.00000
     18      16.6690      0.00000

 k-point     2 :       0.2500    0.0000    0.0000
  band No.  band energies     occupation 
      1     -22.0808      1.00000
      2     -21.4268      1.00000
      3      -7.0291      1.00000
      4      -7.0291      1.00000
      5      -6.6760      1.00000
      6      -6.2419      1.00000
      7      -6.2419      1.00000
      8      -3.7264      1.00000
      9      -2.9606      1.00000
     10      -2.9606      1.00000
     11      -2.8179      1.00000
     12      -2.2136      1.00000
     13      -2.2136      1.00000
     14       2.9356      0.00000
     15       8.8225      0.00000
     16      11.4238      0.00000
     17      11.4238      0.00000
     18      16.6690      0.00000

 k-point     3 :       0.0000   -0.0000   -0.2500
  band No.  band energies     occupation 
      1     -22.0808      1.00000
      2     -21.4268      1.00000
      3      -7.0291      1.00000
      4      -7.0291      1.00000
      5      -6.6760      1.00000
      6      -6.2419      1.00000
      7      -6.2419      1.00000
      8      -3.7264      1.00000
      9      -2.9606      1.00000
     10      -2.9606      1.00000
     11      -2.8179      1.00000
     12      -2.2136      1.00000
     13      -2.2136      1.00000
[...]
      9      -3.8496      1.00000
     10      -3.8331      1.00000
     11      -2.5840      1.00000
     12      -2.1104      1.00000
     13      -1.9809      1.00000
     14       5.2270      0.00000
     15       7.9981      0.00000
     16      10.6127      0.00000
     17      12.1041      0.00000
     18      12.7686      0.00000

 k-point    10 :       0.2500    0.5000    0.0000
  band No.  band energies     occupation 
      1     -21.8268      1.00000
      2     -21.6370      1.00000
      3      -6.7784      1.00000
      4      -6.6816      1.00000
      5      -6.3902      1.00000
      6      -6.1696      1.00000
      7      -6.1142      1.00000
      8      -4.7563      1.00000
      9      -3.8496      1.00000
     10      -3.8331      1.00000
     11      -2.5840      1.00000
     12      -2.1104      1.00000
     13      -1.9809      1.00000
     14       5.2270      0.00000
     15       7.9981      0.00000
     16      10.6127      0.00000
     17      12.1041      0.00000
     18      12.7686      0.00000

 k-point    11 :       0.0000    0.5000   -0.2500
  band No.  band energies     occupation 
      1     -21.8268      1.00000
      2     -21.6370      1.00000
      3      -6.7784      1.00000
      4      -6.6816      1.00000
      5      -6.3902      1.00000
      6      -6.1696      1.00000
      7      -6.1142      1.00000
      8      -4.7563      1.00000
      9      -3.8496      1.00000
     10      -3.8331      1.00000
     11      -2.5840      1.00000
     12      -2.1104      1.00000
     13      -1.9809      1.00000
     14       5.2270      0.00000
     15       7.9981      0.00000
     16      10.6127      0.00000
     17      12.1041      0.00000
     18      12.7686      0.00000

 k-point    12 :       0.5000   -0.0000   -0.2500
  band No.  band energies     occupation 
      1     -21.8268      1.00000
      2     -21.6370      1.00000
      3      -6.7784      1.00000
      4      -6.6816      1.00000
      5      -6.3902      1.00000
      6      -6.1696      1.00000
      7      -6.1142      1.00000
      8      -4.7563      1.00000
      9      -3.8496      1.00000
     10      -3.8331      1.00000
     11      -2.5840      1.00000
     12      -2.1104      1.00000
     13      -1.9809      1.00000
     14       5.2270      0.00000
     15       7.9981      0.00000
     16      10.6127      0.00000
     17      12.1041      0.00000
     18      12.7686      0.00000

 k-point    13 :       0.5000    0.5000    0.2500
  band No.  band energies     occupation 
      1     -21.8268      1.00000
      2     -21.6370      1.00000
      3      -6.7784      1.00000
      4      -6.6816      1.00000
      5      -6.3902      1.00000
      6      -6.1696      1.00000
      7      -6.1142      1.00000
      8      -4.7563      1.00000
      9      -3.8496      1.00000
     10      -3.8331      1.00000
     11      -2.5840      1.00000
     12      -2.1104      1.00000
     13      -1.9809      1.00000
     14       5.2270      0.00000
     15       7.9981      0.00000
     16      10.6127      0.00000
     17      12.1041      0.00000
     18      12.7686      0.00000

 k-point    14 :       0.5000   -0.2500    0.5000
  band No.  band energies     occupation 
      1     -21.8268      1.00000
      2     -21.6370      1.00000
      3      -6.7784      1.00000
      4      -6.6816      1.00000
      5      -6.3902      1.00000
      6      -6.1696      1.00000
      7      -6.1142      1.00000
      8      -4.7563      1.00000
      9      -3.8496      1.00000
     10      -3.8331      1.00000
     11      -2.5840      1.00000
     12      -2.1104      1.00000
     13      -1.9809      1.00000
     14       5.2270      0.00000
     15       7.9981      0.00000
     16      10.6127      0.00000
     17      12.1041      0.00000
     18      12.7686      0.00000

 k-point    15 :       0.0000    0.2500    0.5000
  band No.  band energies     occupation 
      1     -21.8268      1.00000
      2     -21.6370      1.00000
      3      -6.7784      1.00000
      4      -6.6816      1.00000
      5      -6.3902      1.00000
      6      -6.1696      1.00000
      7      -6.1142      1.00000
      8      -4.7563      1.00000
      9      -3.8496      1.00000
     10      -3.8331      1.00000
     11      -2.5840      1.00000
     12      -2.1104      1.00000
     13      -1.9809      1.00000
     14       5.2270      0.00000
     15       7.9981      0.00000
     16      10.6127      0.00000
     17      12.1041      0.00000
     18      12.7686      0.00000

 k-point    16 :       0.5000    0.2500    0.0000
  band No.  band energies     occupation 
      1     -21.8268      1.00000
      2     -21.6370      1.00000
      3      -6.7784      1.00000
      4      -6.6816      1.00000
      5      -6.3902      1.00000
      6      -6.1696      1.00000
      7      -6.1142      1.00000
      8      -4.7563      1.00000
      9      -3.8496      1.00000
     10      -3.8331      1.00000
     11      -2.5840      1.00000
     12      -2.1104      1.00000
     13      -1.9809      1.00000
     14       5.2270      0.00000
     15       7.9981      0.00000
     16      10.6127      0.00000
     17      12.1041      0.00000
     18      12.7686      0.00000


--------------------------------------------------------------------------------------------------------


 soft charge-density along one line, spin component           1
         0         1         2         3         4         5         6         7         8         9
 total charge-density along one line
 
 soft charge-density along one line, spin component           2
         0         1         2         3         4         5         6         7         8         9
 total charge-density along one line
 
 pseudopotential strength for first ion, spin component:           1
-18.190  -0.000   0.008  -0.000  -0.005 -18.224  -0.000   0.008
 -0.000 -18.190  -0.000   0.009   0.000  -0.000 -18.224  -0.000
  0.008  -0.000 -18.182   0.000   0.003   0.008  -0.000 -18.216
 -0.000   0.009   0.000 -18.184  -0.000  -0.000   0.009   0.000
 -0.005   0.000   0.003  -0.000 -18.179  -0.004   0.000   0.003
-18.224  -0.000   0.008  -0.000  -0.004 -18.238  -0.000   0.008
 -0.000 -18.224  -0.000   0.009   0.000  -0.000 -18.238  -0.000
  0.008  -0.000 -18.216   0.000   0.003   0.008  -0.000 -18.231
 -0.000   0.009   0.000 -18.218  -0.000  -0.000   0.009   0.000
 -0.004   0.000   0.003  -0.000 -18.213  -0.004   0.000   0.003
 -0.000   0.000   0.000   0.000  -0.000  -0.000   0.000   0.000
 -0.000   0.000   0.000   0.000  -0.000  -0.000   0.000   0.000
  0.000  -0.000   0.000  -0.000   0.000   0.000  -0.000   0.000
 -0.000  -0.000  -0.000   0.000  -0.000  -0.000  -0.000  -0.000
 -0.000  -0.000  -0.000  -0.000   0.000  -0.000  -0.000  -0.000
  0.000  -0.000   0.000  -0.000   0.000   0.000  -0.000   0.000
 -0.000  -0.000  -0.000   0.000  -0.000  -0.000  -0.000  -0.000
 -0.000  -0.000  -0.000  -0.000   0.000  -0.000  -0.000  -0.000
 pseudopotential strength for first ion, spin component:           2
-18.190  -0.000   0.008   0.000  -0.005 -18.224  -0.000   0.008
 -0.000 -18.190   0.000   0.009   0.000  -0.000 -18.224   0.000
  0.008   0.000 -18.182  -0.000   0.003   0.008   0.000 -18.216
  0.000   0.009  -0.000 -18.184  -0.000   0.000   0.009  -0.000
 -0.005   0.000   0.003  -0.000 -18.179  -0.004   0.000   0.003
-18.224  -0.000   0.008   0.000  -0.004 -18.238  -0.000   0.008
 -0.000 -18.224   0.000   0.009   0.000  -0.000 -18.238   0.000
  0.008   0.000 -18.216  -0.000   0.003   0.008   0.000 -18.231
  0.000   0.009  -0.000 -18.218  -0.000   0.000   0.009  -0.000
 -0.004   0.000   0.003  -0.000 -18.213  -0.004   0.000   0.003
  0.000   0.000  -0.000   0.000   0.000   0.000   0.000  -0.000
  0.000   0.000  -0.000   0.000   0.000   0.000   0.000  -0.000
  0.000  -0.000   0.000   0.000   0.000   0.000  -0.000   0.000
  0.000  -0.000  -0.000   0.000   0.000   0.000  -0.000  -0.000
 -0.000   0.000  -0.000  -0.000   0.000  -0.000   0.000  -0.000
  0.000  -0.000   0.000   0.000   0.000   0.000  -0.000   0.000
  0.000  -0.000  -0.000   0.000   0.000   0.000  -0.000  -0.000
 -0.000   0.000  -0.000  -0.000   0.000  -0.000   0.000  -0.000
 total augmentation occupancy for first ion, spin component:           1
  3.736   0.000   1.217  -0.000  -0.703  -1.566  -0.000  -1.092   0.000   0.630  -0.000   0.000   0.000  -0.000   0.000  -0.000
  0.000   3.736   0.000   1.405  -0.000  -0.000  -1.566  -0.000  -1.261   0.000  -0.000   0.000  -0.000   0.000  -0.000   0.000
  1.217   0.000   4.979   0.000   0.430  -1.092  -0.000  -2.681  -0.000  -0.386  -0.000   0.000   0.000  -0.000   0.000  -0.000
 -0.000   1.405   0.000   4.730  -0.000   0.000  -1.261  -0.000  -2.458   0.000  -0.000   0.000  -0.000   0.000  -0.000   0.000
 -0.703  -0.000   0.430  -0.000   5.475   0.630   0.000  -0.386   0.000  -3.127  -0.000   0.000   0.000  -0.000  -0.000  -0.000
 -1.566  -0.000  -1.092   0.000   0.630   1.414   0.000   0.974  -0.000  -0.563   0.000  -0.000   0.000  -0.000  -0.000   0.000
 -0.000  -1.566  -0.000  -1.261   0.000   0.000   1.414   0.000   1.125  -0.000  -0.000   0.000   0.000  -0.000  -0.000   0.000
 -1.092  -0.000  -2.681  -0.000  -0.386   0.974   0.000   2.409   0.000   0.345   0.000  -0.000  -0.000  -0.000  -0.000  -0.000
  0.000  -1.261  -0.000  -2.458   0.000  -0.000   1.125   0.000   2.210  -0.000   0.000  -0.000  -0.000  -0.000  -0.000   0.000
  0.630   0.000  -0.386   0.000  -3.127  -0.563  -0.000   0.345  -0.000   2.807   0.000  -0.000  -0.000  -0.000   0.000   0.000
 -0.000  -0.000  -0.000  -0.000  -0.000   0.000  -0.000   0.000   0.000   0.000   2.606  -0.958  -0.000  -0.000   0.000  -0.000
  0.000   0.000   0.000   0.000   0.000  -0.000   0.000  -0.000  -0.000  -0.000  -0.958   0.366   0.000   0.000  -0.000   0.000
  0.000  -0.000   0.000  -0.000   0.000   0.000   0.000  -0.000  -0.000  -0.000  -0.000   0.000   0.161   0.000   0.000  -0.047
 -0.000   0.000  -0.000   0.000  -0.000  -0.000  -0.000  -0.000  -0.000  -0.000  -0.000   0.000   0.000   0.161   0.000  -0.000
  0.000  -0.000   0.000  -0.000  -0.000  -0.000  -0.000  -0.000  -0.000   0.000   0.000  -0.000   0.000   0.000   0.161  -0.000
 -0.000   0.000  -0.000   0.000  -0.000   0.000   0.000  -0.000   0.000   0.000  -0.000   0.000  -0.047  -0.000  -0.000   0.015
  0.000  -0.000   0.000  -0.000   0.000   0.000  -0.000   0.000  -0.000   0.000   0.000  -0.000  -0.000  -0.047  -0.000   0.000
 -0.000   0.000  -0.000   0.000  -0.000   0.000   0.000   0.000   0.000  -0.000  -0.000   0.000  -0.000  -0.000  -0.047   0.000
 total augmentation occupancy for first ion, spin component:           2
  0.000   0.000  -0.000  -0.000  -0.000  -0.000  -0.000   0.000   0.000   0.000   0.000  -0.000   0.000  -0.000   0.000  -0.000
  0.000   0.000  -0.000   0.000   0.000  -0.000  -0.000   0.000  -0.000  -0.000  -0.000   0.000   0.000   0.000  -0.000  -0.000
 -0.000  -0.000  -0.000   0.000  -0.000   0.000   0.000   0.000  -0.000   0.000  -0.000   0.000   0.000  -0.000   0.000  -0.000
 -0.000   0.000   0.000   0.000   0.000   0.000  -0.000  -0.000  -0.000  -0.000  -0.000   0.000   0.000   0.000  -0.000  -0.000
 -0.000   0.000  -0.000   0.000   0.000   0.000  -0.000   0.000  -0.000  -0.000  -0.000   0.000   0.000  -0.000   0.000  -0.000
 -0.000  -0.000   0.000   0.000   0.000   0.000   0.000  -0.000  -0.000  -0.000   0.000   0.000  -0.000   0.000   0.000   0.000
 -0.000  -0.000   0.000  -0.000  -0.000   0.000  -0.000  -0.000   0.000   0.000  -0.000   0.000  -0.000  -0.000   0.000   0.000
  0.000   0.000   0.000  -0.000   0.000  -0.000  -0.000  -0.000   0.000   0.000  -0.000  -0.000  -0.000   0.000   0.000   0.000
  0.000  -0.000  -0.000  -0.000  -0.000  -0.000   0.000   0.000   0.000   0.000   0.000  -0.000  -0.000  -0.000   0.000   0.000
  0.000  -0.000   0.000  -0.000  -0.000  -0.000   0.000   0.000   0.000   0.000   0.000  -0.000  -0.000  -0.000  -0.000   0.000
  0.000  -0.000  -0.000  -0.000  -0.000   0.000  -0.000  -0.000   0.000   0.000  -0.000   0.000  -0.000  -0.000   0.000   0.000
 -0.000   0.000   0.000   0.000   0.000   0.000   0.000  -0.000  -0.000  -0.000   0.000  -0.000   0.000   0.000   0.000  -0.000
  0.000   0.000   0.000   0.000   0.000  -0.000  -0.000  -0.000  -0.000  -0.000  -0.000   0.000  -0.000  -0.000   0.000   0.000
 -0.000   0.000  -0.000   0.000  -0.000   0.000  -0.000   0.000  -0.000  -0.000  -0.000   0.000  -0.000  -0.000  -0.000   0.000
  0.000  -0.000   0.000  -0.000   0.000   0.000   0.000   0.000   0.000  -0.000   0.000   0.000   0.000  -0.000   0.000  -0.000
 -0.000  -0.000  -0.000  -0.000  -0.000   0.000   0.000   0.000   0.000   0.000   0.000  -0.000   0.000   0.000  -0.000  -0.000
  0.000  -0.000   0.000  -0.000   0.000  -0.000   0.000   0.000   0.000   0.000   0.000  -0.000  -0.000   0.000   0.000   0.000
 -0.000   0.000  -0.000   0.000  -0.000  -0.000  -0.000   0.000  -0.000   0.000  -0.000   0.000  -0.000   0.000  -0.000   0.000


------------------------ aborting loop because EDIFF is reached ----------------------------------------


 


 total charge     
 
# of ion     s       p       d       tot
----------------------------------------
  1        0.223   0.175   9.677  10.076
  2        1.739   4.327   0.000   6.067
  3        1.739   4.327   0.000   6.067
------------------------------------------------
tot        3.702   8.830   9.677  22.209
 


 magnetization (x)
 
# of ion     s       p       d       tot
----------------------------------------
  1        0.000   0.000  -0.000   0.000
  2        0.000  -0.000   0.000  -0.000
  3        0.000   0.000   0.000   0.000
------------------------------------------------
tot        0.000  -0.000  -0.000   0.000
 
    CHARGE:  cpu time    0.1052: real time    0.1053
    FORLOC:  cpu time    0.0049: real time    0.0049
    FORNL :  cpu time    0.5268: real time    0.5270
    STRESS:  cpu time    1.6184: real time    1.6192
    FORCOR:  cpu time    0.1269: real time    0.1269
    FORHAR:  cpu time    0.0137: real time    0.0137
    MIXING:  cpu time    0.0040: real time    0.0040
    OFIELD:  cpu time    0.0000: real time    0.0000

  FORCE on cell =-STRESS in cart. coord.  units (eV):
  Direction    XX          YY          ZZ          XY          YZ          ZX
  --------------------------------------------------------------------------------------
  Alpha Z   147.93194   147.93194   147.93194
  Ewald    -649.20983  -649.20995  -649.20983     0.00000     0.00000     0.00000
  Hartree   247.63115   247.63108   247.63116     0.00000     0.00000     0.00000
  E(xc)    -143.94891  -143.94891  -143.94890     0.00000     0.00000     0.00000
  Local      23.11188    23.11204    23.11200     0.00004     0.00008     0.00011
  n-local  -170.76277  -170.76277  -170.76278    -0.00000    -0.00000    -0.00001
  augment    66.36991    66.36994    66.36982    -0.00003    -0.00006    -0.00008
  Kinetic   478.83663   478.83662   478.83665     0.00001     0.00001     0.00002
  Fock        0.00000     0.00000     0.00000     0.00000     0.00000     0.00000
  -------------------------------------------------------------------------------------
  Total      -0.04000    -0.04000    -0.03994     0.00002     0.00003     0.00005
  in kB      -1.54698    -1.54717    -1.54483     0.00086     0.00135     0.00195
  external pressure =       -1.55 kB  Pullay stress =        0.00 kB


 VOLUME and BASIS-vectors are now :
 -----------------------------------------------------------------------------
  energy-cutoff  :      520.00
  volume of cell :       41.43
      direct lattice vectors                 reciprocal lattice vectors
     3.363492000  0.000000000  1.941913000     0.297310058 -0.105114968  0.000000000
     1.121164000  3.171131000  1.941913000     0.000000000  0.315344904  0.000000000
     0.000000000  0.000000000  3.883826000    -0.148655029 -0.105114968  0.257478064

  length of vectors
     3.883826017  3.883826288  3.883826000     0.315344933  0.315344904  0.315344934


 FORCES acting on ions
    electron-ion (+dipol)            ewald-force                    non-local-force                 convergence-correction
 -----------------------------------------------------------------------------------------------
   0.309E-05 -.175E-05 -.129E-04   0.500E-14 0.770E-14 -.560E-15   0.185E-04 -.976E-05 -.527E-04   -.187E-04 0.100E-04 0.596E-04
   0.429E-04 0.874E-04 0.596E-04   -.197E-05 -.500E-04 -.659E-13   0.351E-04 0.479E-04 0.573E-04   -.735E-04 -.852E-04 -.113E-03
   -.647E-04 -.930E-04 -.542E-04   0.197E-05 0.500E-04 0.673E-13   -.555E-04 -.514E-04 -.513E-04   0.115E-03 0.943E-04 0.102E-03
 -----------------------------------------------------------------------------------------------
   -.188E-04 -.740E-05 -.757E-05   0.145E-14 -.492E-15 0.842E-15   -.181E-05 -.133E-04 -.466E-04   0.233E-04 0.191E-04 0.486E-04
 
 
 POSITION                                       TOTAL-FORCE (eV/Angst)
 -----------------------------------------------------------------------------------
      0.00000      0.00000      0.00000         0.000002     -0.000001     -0.000004
      3.36349      2.37835      5.82574         0.000002      0.000001      0.000006
      1.12116      0.79278      1.94191        -0.000004      0.000000     -0.000002
 -----------------------------------------------------------------------------------
    total drift:                                0.000003     -0.000002     -0.000006


--------------------------------------------------------------------------------------------------------



  FREE ENERGIE OF THE ION-ELECTRON SYSTEM (eV)
  ---------------------------------------------------
  free  energy   TOTEN  =       -10.92028475 eV

  energy  without entropy=      -10.92028475  energy(sigma->0) =      -10.92028475
 


--------------------------------------------------------------------------------------------------------


    POTLOK:  cpu time    0.1360: real time    0.1361


--------------------------------------------------------------------------------------------------------


 writing wavefunctions
     LOOP+:  cpu time   37.9470: real time   38.1619
    4ORBIT:  cpu time    0.0000: real time    0.0000
 


 total charge     
 
# of ion     s       p       d       tot
----------------------------------------
  1        0.223   0.175   9.677  10.076
  2        1.739   4.327   0.000   6.067
  3        1.739   4.327   0.000   6.067
------------------------------------------------
tot        3.702   8.830   9.677  22.209
 


 magnetization (x)
 
# of ion     s       p       d       tot
----------------------------------------
  1        0.000   0.000  -0.000   0.000
  2        0.000  -0.000   0.000  -0.000
  3        0.000   0.000   0.000   0.000
------------------------------------------------
tot        0.000  -0.000  -0.000   0.000
 
 BZINTS: Fermi energy: -1.924441; 26.000000 electrons
         Band energy:-188.877129;  BLOECHL correction:  0.000000

 total amount of memory used by VASP on root node    46592. kBytes
========================================================================

   base      :      30000. kBytes
   nonlr-proj:       2254. kBytes
   fftplans  :       2605. kBytes
   grid      :       8102. kBytes
   one-center:         93. kBytes
   wavefun   :       3538. kBytes
 
  
  
 General timing and accounting informations for this job:
 ========================================================
  
                  Total CPU time used (sec):       39.785
                            User time (sec):       39.051
                          System time (sec):        0.733
                         Elapsed time (sec):       40.258
  
                   Maximum memory used (kb):       58984.
                   Average memory used (kb):           0.
  
                          Minor page faults:        38446
                          Major page faults:           23
                 Voluntary context switches:          932
