       N       E                     dE             d eps       ncg     rms          rms(c)
DAV:   1    -0.591727126025E+03   -0.59173E+03   -0.27632E+04  1521   0.161E+03
DAV:   2    -0.773407130860E+03   -0.18168E+03   -0.18109E+03  1476   0.478E+02
DAV:   3    -0.779384075400E+03   -0.59769E+01   -0.59734E+01  1530   0.833E+01
DAV:   4    -0.779485693310E+03   -0.10162E+00   -0.10161E+00  1701   0.111E+01
DAV:   5    -0.779487788919E+03   -0.20956E-02   -0.20956E-02  1719   0.146E+00    0.233E+03
DAV:   6    -0.186818274925E+03    0.59267E+03   -0.41518E+02  1251   0.203E+02    0.139E+03
DAV:   7    -0.102014818784E+03    0.84803E+02   -0.14112E+03  1602   0.379E+02    0.144E+02
DAV:   8    -0.149961966668E+02    0.87019E+02   -0.60723E+02  1305   0.179E+02    0.810E+01
DAV:   9    -0.155127387744E+02   -0.51654E+00   -0.42993E+01  1296   0.653E+01    0.346E+01
DAV:  10    -0.128895538383E+02    0.26232E+01   -0.18732E+00  1782   0.198E+01    0.243E+01
DAV:  11    -0.110498208379E+02    0.18397E+01   -0.27742E+00  1386   0.322E+01    0.829E+00
DAV:  12    -0.109016703392E+02    0.14815E+00   -0.21239E+00  1152   0.160E+01    0.174E+00
DAV:  13    -0.109238439935E+02   -0.22174E-01   -0.13027E-01  1242   0.382E+00    0.163E+00
DAV:  14    -0.109215758779E+02    0.22681E-02   -0.69229E-03  1170   0.102E+00    0.892E-01
DAV:  15    -0.109209720724E+02    0.60381E-03   -0.33591E-03  1224   0.617E-01    0.514E-01
DAV:  16    -0.109202467515E+02    0.72532E-03   -0.35286E-03  1206   0.625E-01    0.237E-02
DAV:  17    -0.109202864925E+02   -0.39741E-04   -0.25180E-04  1161   0.158E-01    0.230E-02
DAV:  18    -0.109202838867E+02    0.26058E-05   -0.16390E-05  1296   0.374E-02    0.160E-02
DAV:  19    -0.109202847787E+02   -0.89202E-06   -0.36170E-06  1152   0.202E-02    0.531E-03
DAV:  20    -0.109202847546E+02    0.24133E-07   -0.40047E-07  1026   0.653E-03
   1 F= -.10920285E+02 E0= -.10920285E+02  d E =0.000000E+00  mag=     0.0000
